
     Program PWSCF v.6.4.1 starts on 12Mar2024 at  1: 5: 4 

     This program is part of the open-source Quantum ESPRESSO suite
     for quantum simulation of materials; please cite
         "P. Giannozzi et al., J. Phys.:Condens. Matter 21 395502 (2009);
         "P. Giannozzi et al., J. Phys.:Condens. Matter 29 465901 (2017);
          URL http://www.quantum-espresso.org", 
     in publications or presentations arising from this work. More details at
     http://www.quantum-espresso.org/quote

     Parallel version (MPI), running on    32 processors

     MPI processes distributed on     1 nodes
     R & G space division:  proc/nbgrp/npool/nimage =      32
     Reading input from li_v16o40.rlx.in

     Current dimensions of program PWSCF are:
     Max number of different atomic species (ntypx) = 10
     Max number of k-points (npk) =  40000
     Max angular momentum in pseudopotentials (lmaxx) =  3

     IMPORTANT: XC functional enforced from input :
     Exchange-correlation      = VDW-DF ( 1  4  4  0 1 0)
     Any further DFT definition will be discarded
     Please, verify this is what you really want

               file V.pbesol-spnl-kjpaw_psl.1.0.0.UPF: wavefunction(s)  3P 3D renormalized
               file O.pbesol-n-kjpaw_psl.1.0.0.UPF: wavefunction(s)  2S 2P renormalized

     Subspace diagonalization in iterative solution of the eigenvalue problem:
     one sub-group per band group will be used
     ELPA distributed-memory algorithm (size of sub-group:  4*  4 procs)


     Parallelization info
     --------------------
     sticks:   dense  smooth     PW     G-vecs:    dense   smooth      PW
     Min         210      84     23                19664     4976     727
     Max         211      85     25                19668     4979     728
     Sum        6729    2697    749               629305   159273   23271



     bravais-lattice index     =            0
     lattice parameter (alat)  =      13.5330  a.u.
     unit-cell volume          =    4659.2488 (a.u.)^3
     number of atoms/cell      =           57
     number of atomic types    =            3
     number of electrons       =       451.00
     number of Kohn-Sham states=          271
     kinetic-energy cutoff     =      40.0000  Ry
     charge density cutoff     =     400.0000  Ry
     convergence threshold     =      1.0E-06
     mixing beta               =       0.4000
     number of iterations used =            8  plain     mixing
     Exchange-correlation      = VDW-DF ( 1  4  4  0 1 0)
     nstep                     =          500


     celldm(1)=  13.532985  celldm(2)=   0.000000  celldm(3)=   0.000000
     celldm(4)=   0.000000  celldm(5)=   0.000000  celldm(6)=   0.000000

     crystal axes: (cart. coord. in units of alat)
               a(1) = (   1.000000  -0.000000   0.000000 )  
               a(2) = (  -0.000000   1.153628   0.000000 )  
               a(3) = (   0.000000   0.000000   1.629556 )  

     reciprocal axes: (cart. coord. in units 2 pi/alat)
               b(1) = (  1.000000  0.000000 -0.000000 )  
               b(2) = (  0.000000  0.866831 -0.000000 )  
               b(3) = ( -0.000000 -0.000000  0.613664 )  


     PseudoPot. # 1 for V  read from file:
     /home/mpicuntureo/pseudos/V.pbesol-spnl-kjpaw_psl.1.0.0.UPF
     MD5 check sum: d709b3179d4cab0f72010db8785d50db
     Pseudo is Projector augmented-wave + core cor, Zval = 13.0
     Generated using "atomic" code by A. Dal Corso v.6.3
     Shape of augmentation charge: PSQ
     Using radial grid of 1181 points,  6 beta functions with: 
                l(1) =   0
                l(2) =   0
                l(3) =   1
                l(4) =   1
                l(5) =   2
                l(6) =   2
     Q(r) pseudized with 0 coefficients 


     PseudoPot. # 2 for O  read from file:
     /home/mpicuntureo/pseudos/O.pbesol-n-kjpaw_psl.1.0.0.UPF
     MD5 check sum: cb766521a97cf798d01896eaf7ac9a0a
     Pseudo is Projector augmented-wave + core cor, Zval =  6.0
     Generated using "atomic" code by A. Dal Corso v.6.3
     Shape of augmentation charge: PSQ
     Using radial grid of 1095 points,  4 beta functions with: 
                l(1) =   0
                l(2) =   0
                l(3) =   1
                l(4) =   1
     Q(r) pseudized with 0 coefficients 


     PseudoPot. # 3 for Li read from file:
     /home/mpicuntureo/pseudos/Li.pbesol-sl-kjpaw_psl.1.0.0.UPF
     MD5 check sum: eef8ea5bb9be16d4f57185b44daa939b
     Pseudo is Projector augmented-wave, Zval =  3.0
     Generated using "atomic" code by A. Dal Corso v.6.3
     Shape of augmentation charge: PSQ
     Using radial grid of 1017 points,  4 beta functions with: 
                l(1) =   0
                l(2) =   0
                l(3) =   1
                l(4) =   1
     Q(r) pseudized with 0 coefficients 


     vdW kernel table read from file vdW_kernel_table
     MD5 check sum: 8c4337f4b28e1601c069d7ef7b6561bc

     atomic species   valence    mass     pseudopotential
        V             13.00    50.94150     V ( 1.00)
        O              6.00    15.99940     O ( 1.00)
        Li             3.00     6.94100     Li( 1.00)

     No symmetry found



   Cartesian axes

     site n.     atom                  positions (alat units)
         1           V   tau(   1) = (   0.1548513   0.2210409   0.2423034  )
         2           V   tau(   2) = (   0.4048513   0.3472013   0.5724700  )
         3           V   tau(   3) = (   0.4048513   0.3472013   1.0570860  )
         4           V   tau(   4) = (   0.1548513   0.2210409   1.3872527  )
         5           O   tau(   5) = (   0.1548552   0.2800035   0.0000000  )
         6           O   tau(   6) = (   0.1548525  -0.0052330   0.2376924  )
         7           O   tau(   7) = (   0.4048544   0.2831581   0.2928758  )
         8           O   tau(   8) = (   0.1548545   0.2850854   0.5219019  )
         9           O   tau(   9) = (   0.4048529   0.5734746   0.5770840  )
        10           O   tau(  10) = (   0.4048556   0.2882351   0.8147780  )
        11           O   tau(  11) = (   0.4048529   0.5734746   1.0524720  )
        12           O   tau(  12) = (   0.1548545   0.2850854   1.1076541  )
        13           O   tau(  13) = (   0.4048544   0.2831581   1.3366802  )
        14           O   tau(  14) = (   0.1548525  -0.0052330   1.3918637  )
        15           V   tau(  15) = (   0.1548512   0.7978550   0.2423034  )
        16           V   tau(  16) = (   0.4048512   0.9240153   0.5724700  )
        17           V   tau(  17) = (   0.4048512   0.9240153   1.0570860  )
        18           V   tau(  18) = (   0.1548512   0.7978550   1.3872527  )
        19           O   tau(  19) = (   0.1548550   0.8568175   0.0000000  )
        20           O   tau(  20) = (   0.1548523   0.5715810   0.2376924  )
        21           O   tau(  21) = (   0.4048543   0.8599721   0.2928758  )
        22           O   tau(  22) = (   0.1548544   0.8618995   0.5219019  )
        23           O   tau(  23) = (   0.4048528   1.1502886   0.5770840  )
        24           O   tau(  24) = (   0.4048555   0.8650491   0.8147780  )
        25           O   tau(  25) = (   0.4048528   1.1502886   1.0524720  )
        26           O   tau(  26) = (   0.1548544   0.8618995   1.1076541  )
        27           O   tau(  27) = (   0.4048543   0.8599721   1.3366802  )
        28           O   tau(  28) = (   0.1548523   0.5715810   1.3918637  )
        29           V   tau(  29) = (   0.6548513   0.2210408   0.2423034  )
        30           V   tau(  30) = (   0.9048513   0.3472012   0.5724700  )
        31           V   tau(  31) = (   0.9048513   0.3472012   1.0570860  )
        32           V   tau(  32) = (   0.6548513   0.2210408   1.3872527  )
        33           O   tau(  33) = (   0.6548552   0.2800034   0.0000000  )
        34           O   tau(  34) = (   0.6548525  -0.0052331   0.2376924  )
        35           O   tau(  35) = (   0.9048544   0.2831580   0.2928758  )
        36           O   tau(  36) = (   0.6548545   0.2850853   0.5219019  )
        37           O   tau(  37) = (   0.9048529   0.5734745   0.5770840  )
        38           O   tau(  38) = (   0.9048556   0.2882350   0.8147780  )
        39           O   tau(  39) = (   0.9048529   0.5734745   1.0524720  )
        40           O   tau(  40) = (   0.6548545   0.2850853   1.1076541  )
        41           O   tau(  41) = (   0.9048544   0.2831580   1.3366802  )
        42           O   tau(  42) = (   0.6548525  -0.0052331   1.3918637  )
        43           V   tau(  43) = (   0.6548512   0.7978549   0.2423034  )
        44           V   tau(  44) = (   0.9048512   0.9240152   0.5724700  )
        45           V   tau(  45) = (   0.9048512   0.9240152   1.0570860  )
        46           V   tau(  46) = (   0.6548512   0.7978549   1.3872527  )
        47           O   tau(  47) = (   0.6548550   0.8568174   0.0000000  )
        48           O   tau(  48) = (   0.6548523   0.5715809   0.2376924  )
        49           O   tau(  49) = (   0.9048543   0.8599720   0.2928758  )
        50           O   tau(  50) = (   0.6548544   0.8618994   0.5219019  )
        51           O   tau(  51) = (   0.9048528   1.1502885   0.5770840  )
        52           O   tau(  52) = (   0.9048555   0.8650490   0.8147780  )
        53           O   tau(  53) = (   0.9048528   1.1502885   1.0524720  )
        54           O   tau(  54) = (   0.6548544   0.8618994   1.1076541  )
        55           O   tau(  55) = (   0.9048543   0.8599720   1.3366802  )
        56           O   tau(  56) = (   0.6548523   0.5715809   1.3918637  )
        57           Li  tau(  57) = (   0.6590459   0.6031904   0.8126482  )

     number of k points=     8  gaussian smearing, width (Ry)=  0.1000
                       cart. coord. in units 2pi/alat
        k(    1) = (   0.0000000   0.0000000   0.0000000), wk =   0.2500000
        k(    2) = (   0.0000000   0.0000000  -0.3068320), wk =   0.2500000
        k(    3) = (  -0.0000001  -0.4334153   0.0000000), wk =   0.2500000
        k(    4) = (  -0.0000001  -0.4334153  -0.3068320), wk =   0.2500000
        k(    5) = (  -0.5000000  -0.0000001   0.0000000), wk =   0.2500000
        k(    6) = (  -0.5000000  -0.0000001  -0.3068320), wk =   0.2500000
        k(    7) = (  -0.5000001  -0.4334154   0.0000000), wk =   0.2500000
        k(    8) = (  -0.5000001  -0.4334154  -0.3068320), wk =   0.2500000

     Dense  grid:   629305 G-vectors     FFT dimensions: (  90, 100, 144)

     Smooth grid:   159273 G-vectors     FFT dimensions: (  60,  64,  90)

     Estimated max dynamical RAM per process >     158.61 MB

     Estimated total dynamical RAM >       4.96 GB

     Check: negative core charge=   -0.000007

     Initial potential from superposition of free atoms

     starting charge  450.98163, renormalised to  451.00000


     %%%%%%%%%%%%%%%%%%%%%%%%%%%%%%%%%%%%%%%%%%%%%%%%%%%%%%%%%%%%%%%%%%%%%%%%
     %                                                                      %
     % You are using vdW-DF, which was implemented by the Thonhauser group. %
     % Please cite the following two papers that made this development      %
     % possible and the two reviews that describe the various versions:     %
     %                                                                      %
     %   T. Thonhauser et al., PRL 115, 136402 (2015).                      %
     %   T. Thonhauser et al., PRB 76, 125112 (2007).                       %
     %   K. Berland et al., Rep. Prog. Phys. 78, 066501 (2015).             %
     %   D.C. Langreth et al., J. Phys.: Condens. Matter 21, 084203 (2009). %
     %                                                                      %
     %                                                                      %
     % If you are calculating the stress with vdW-DF, please also cite:     %
     %                                                                      %
     %   R. Sabatini et al., J. Phys.: Condens. Matter 24, 424209 (2012).   %
     %                                                                      %
     %%%%%%%%%%%%%%%%%%%%%%%%%%%%%%%%%%%%%%%%%%%%%%%%%%%%%%%%%%%%%%%%%%%%%%%%


     Starting wfcs are  325 randomized atomic wfcs
     Checking if some PAW data can be deallocated... 

     total cpu time spent up to now is       21.1 secs

     Self-consistent Calculation

     iteration #  1     ecut=    40.00 Ry     beta= 0.40
     Davidson diagonalization with overlap
     ethr =  1.00E-02,  avg # of iterations =  2.0

     total cpu time spent up to now is       62.2 secs

     total energy              =   -5145.16513008 Ry
     Harris-Foulkes estimate   =   -5167.38079653 Ry
     estimated scf accuracy    <      38.84855042 Ry

     iteration #  2     ecut=    40.00 Ry     beta= 0.40
     Davidson diagonalization with overlap
     ethr =  8.61E-03,  avg # of iterations =  4.5

     total cpu time spent up to now is      142.0 secs

     total energy              =   -5129.44371448 Ry
     Harris-Foulkes estimate   =   -5182.62821257 Ry
     estimated scf accuracy    <     287.59405399 Ry

     iteration #  3     ecut=    40.00 Ry     beta= 0.40
     Davidson diagonalization with overlap
     ethr =  8.61E-03,  avg # of iterations =  5.0

     total cpu time spent up to now is      221.0 secs

     total energy              =   -5161.04051055 Ry
     Harris-Foulkes estimate   =   -5162.63720272 Ry
     estimated scf accuracy    <       9.49194053 Ry

     iteration #  4     ecut=    40.00 Ry     beta= 0.40
     Davidson diagonalization with overlap
     ethr =  2.10E-03,  avg # of iterations =  3.4

     total cpu time spent up to now is      261.7 secs

     total energy              =   -5161.05289952 Ry
     Harris-Foulkes estimate   =   -5161.61007670 Ry
     estimated scf accuracy    <       4.27852998 Ry

     iteration #  5     ecut=    40.00 Ry     beta= 0.40
     Davidson diagonalization with overlap
     ethr =  9.49E-04,  avg # of iterations =  1.5

     negative rho (up, down):  4.811E-04 0.000E+00

     total cpu time spent up to now is      299.7 secs

     total energy              =   -5160.97602583 Ry
     Harris-Foulkes estimate   =   -5161.28575026 Ry
     estimated scf accuracy    <       2.19726739 Ry

     iteration #  6     ecut=    40.00 Ry     beta= 0.40
     Davidson diagonalization with overlap
     ethr =  4.87E-04,  avg # of iterations =  6.5

     negative rho (up, down):  1.015E-03 0.000E+00

     total cpu time spent up to now is      346.7 secs

     total energy              =   -5161.04803983 Ry
     Harris-Foulkes estimate   =   -5161.12514201 Ry
     estimated scf accuracy    <       0.47219738 Ry

     iteration #  7     ecut=    40.00 Ry     beta= 0.40
     Davidson diagonalization with overlap
     ethr =  1.05E-04,  avg # of iterations =  6.0

     negative rho (up, down):  1.423E-03 0.000E+00

     total cpu time spent up to now is      427.9 secs

     total energy              =   -5161.19650583 Ry
     Harris-Foulkes estimate   =   -5161.22783396 Ry
     estimated scf accuracy    <       0.17264266 Ry

     iteration #  8     ecut=    40.00 Ry     beta= 0.40
     Davidson diagonalization with overlap
     ethr =  3.83E-05,  avg # of iterations =  9.4

     negative rho (up, down):  1.761E-03 0.000E+00

     total cpu time spent up to now is      482.7 secs

     total energy              =   -5161.20507100 Ry
     Harris-Foulkes estimate   =   -5161.22933893 Ry
     estimated scf accuracy    <       0.19662188 Ry

     iteration #  9     ecut=    40.00 Ry     beta= 0.40
     Davidson diagonalization with overlap
     ethr =  3.83E-05,  avg # of iterations =  3.1

     negative rho (up, down):  1.900E-03 0.000E+00

     total cpu time spent up to now is      523.2 secs

     total energy              =   -5161.21339824 Ry
     Harris-Foulkes estimate   =   -5161.22172505 Ry
     estimated scf accuracy    <       0.06640141 Ry

     iteration # 10     ecut=    40.00 Ry     beta= 0.40
     Davidson diagonalization with overlap
     ethr =  1.47E-05,  avg # of iterations =  6.4

     negative rho (up, down):  2.052E-03 0.000E+00

     total cpu time spent up to now is      568.9 secs

     total energy              =   -5161.21573401 Ry
     Harris-Foulkes estimate   =   -5161.22028643 Ry
     estimated scf accuracy    <       0.04602234 Ry

     iteration # 11     ecut=    40.00 Ry     beta= 0.40
     Davidson diagonalization with overlap
     ethr =  1.02E-05,  avg # of iterations =  6.6

     negative rho (up, down):  2.033E-03 0.000E+00

     total cpu time spent up to now is      615.2 secs

     total energy              =   -5161.21383425 Ry
     Harris-Foulkes estimate   =   -5161.21990147 Ry
     estimated scf accuracy    <       0.03520204 Ry

     iteration # 12     ecut=    40.00 Ry     beta= 0.40
     Davidson diagonalization with overlap
     ethr =  7.81E-06,  avg # of iterations =  3.6

     negative rho (up, down):  2.150E-03 0.000E+00

     total cpu time spent up to now is      656.7 secs

     total energy              =   -5161.21602301 Ry
     Harris-Foulkes estimate   =   -5161.21709464 Ry
     estimated scf accuracy    <       0.00799175 Ry

     iteration # 13     ecut=    40.00 Ry     beta= 0.40
     Davidson diagonalization with overlap
     ethr =  1.77E-06,  avg # of iterations =  9.4

     negative rho (up, down):  2.268E-03 0.000E+00

     total cpu time spent up to now is      730.6 secs

     total energy              =   -5161.21734584 Ry
     Harris-Foulkes estimate   =   -5161.21769755 Ry
     estimated scf accuracy    <       0.00274281 Ry

     iteration # 14     ecut=    40.00 Ry     beta= 0.40
     Davidson diagonalization with overlap
     ethr =  6.08E-07,  avg # of iterations =  7.1

     negative rho (up, down):  2.331E-03 0.000E+00

     total cpu time spent up to now is      780.3 secs

     total energy              =   -5161.21748731 Ry
     Harris-Foulkes estimate   =   -5161.21783262 Ry
     estimated scf accuracy    <       0.00204288 Ry

     iteration # 15     ecut=    40.00 Ry     beta= 0.40
     Davidson diagonalization with overlap
     ethr =  4.53E-07,  avg # of iterations =  7.6

     negative rho (up, down):  2.347E-03 0.000E+00

     total cpu time spent up to now is      830.5 secs

     total energy              =   -5161.21761602 Ry
     Harris-Foulkes estimate   =   -5161.21778534 Ry
     estimated scf accuracy    <       0.00067842 Ry

     iteration # 16     ecut=    40.00 Ry     beta= 0.40
     Davidson diagonalization with overlap
     ethr =  1.50E-07,  avg # of iterations =  7.1

     negative rho (up, down):  2.398E-03 0.000E+00

     total cpu time spent up to now is      888.0 secs

     total energy              =   -5161.21775499 Ry
     Harris-Foulkes estimate   =   -5161.21783808 Ry
     estimated scf accuracy    <       0.00086073 Ry

     iteration # 17     ecut=    40.00 Ry     beta= 0.40
     Davidson diagonalization with overlap
     ethr =  1.50E-07,  avg # of iterations =  7.5

     negative rho (up, down):  2.416E-03 0.000E+00

     total cpu time spent up to now is      936.3 secs

     total energy              =   -5161.21783155 Ry
     Harris-Foulkes estimate   =   -5161.21786358 Ry
     estimated scf accuracy    <       0.00021001 Ry

     iteration # 18     ecut=    40.00 Ry     beta= 0.40
     Davidson diagonalization with overlap
     ethr =  4.66E-08,  avg # of iterations =  6.1

     negative rho (up, down):  2.407E-03 0.000E+00

     total cpu time spent up to now is      987.2 secs

     total energy              =   -5161.21782833 Ry
     Harris-Foulkes estimate   =   -5161.21788412 Ry
     estimated scf accuracy    <       0.00025601 Ry

     iteration # 19     ecut=    40.00 Ry     beta= 0.40
     Davidson diagonalization with overlap
     ethr =  4.66E-08,  avg # of iterations =  6.6

     negative rho (up, down):  2.411E-03 0.000E+00

     total cpu time spent up to now is     1034.6 secs

     total energy              =   -5161.21784015 Ry
     Harris-Foulkes estimate   =   -5161.21787832 Ry
     estimated scf accuracy    <       0.00023634 Ry

     iteration # 20     ecut=    40.00 Ry     beta= 0.40
     Davidson diagonalization with overlap
     ethr =  4.66E-08,  avg # of iterations =  7.4

     negative rho (up, down):  2.416E-03 0.000E+00

     total cpu time spent up to now is     1122.1 secs

     total energy              =   -5161.21785786 Ry
     Harris-Foulkes estimate   =   -5161.21787521 Ry
     estimated scf accuracy    <       0.00012502 Ry

     iteration # 21     ecut=    40.00 Ry     beta= 0.40
     Davidson diagonalization with overlap
     ethr =  2.77E-08,  avg # of iterations =  5.5

     negative rho (up, down):  2.421E-03 0.000E+00

     total cpu time spent up to now is     1262.0 secs

     total energy              =   -5161.21786930 Ry
     Harris-Foulkes estimate   =   -5161.21787315 Ry
     estimated scf accuracy    <       0.00004019 Ry

     iteration # 22     ecut=    40.00 Ry     beta= 0.40
     Davidson diagonalization with overlap
     ethr =  8.91E-09,  avg # of iterations =  7.0

     negative rho (up, down):  2.429E-03 0.000E+00

     total cpu time spent up to now is     1420.3 secs

     total energy              =   -5161.21787534 Ry
     Harris-Foulkes estimate   =   -5161.21787842 Ry
     estimated scf accuracy    <       0.00003302 Ry

     iteration # 23     ecut=    40.00 Ry     beta= 0.40
     Davidson diagonalization with overlap
     ethr =  7.32E-09,  avg # of iterations =  2.1

     negative rho (up, down):  2.426E-03 0.000E+00

     total cpu time spent up to now is     1533.2 secs

     total energy              =   -5161.21787703 Ry
     Harris-Foulkes estimate   =   -5161.21787844 Ry
     estimated scf accuracy    <       0.00000314 Ry

     iteration # 24     ecut=    40.00 Ry     beta= 0.40
     Davidson diagonalization with overlap
     ethr =  6.95E-10,  avg # of iterations =  5.0

     negative rho (up, down):  2.426E-03 0.000E+00

     total cpu time spent up to now is     1799.0 secs

     total energy              =   -5161.21787816 Ry
     Harris-Foulkes estimate   =   -5161.21787997 Ry
     estimated scf accuracy    <       0.00001208 Ry

     iteration # 25     ecut=    40.00 Ry     beta= 0.40
     Davidson diagonalization with overlap
     ethr =  6.95E-10,  avg # of iterations =  7.8

     negative rho (up, down):  2.428E-03 0.000E+00

     total cpu time spent up to now is     1975.5 secs

     total energy              =   -5161.21787920 Ry
     Harris-Foulkes estimate   =   -5161.21787943 Ry
     estimated scf accuracy    <       0.00000220 Ry

     iteration # 26     ecut=    40.00 Ry     beta= 0.40
     Davidson diagonalization with overlap
     ethr =  4.89E-10,  avg # of iterations =  8.9

     negative rho (up, down):  2.426E-03 0.000E+00

     total cpu time spent up to now is     2140.9 secs

     End of self-consistent calculation

          k = 0.0000 0.0000 0.0000 ( 19937 PWs)   bands (ev):

   -59.2869 -59.2833 -59.2806 -59.2771 -59.1998 -59.1980 -59.1966 -59.1948
   -59.1632 -59.1614 -59.1585 -59.1568 -59.1530 -59.1513 -59.1512 -59.1495
   -40.8177 -33.2875 -33.2832 -33.2788 -33.2746 -33.1673 -33.1653 -33.1621
   -33.1605 -33.1431 -33.1308 -33.1293 -33.1238 -33.1236 -33.1230 -33.1197
   -33.1151 -33.1125 -33.0972 -33.0855 -33.0836 -33.0802 -33.0632 -33.0622
   -33.0608 -33.0452 -33.0283 -33.0249 -33.0248 -33.0209 -33.0161 -32.9870
   -32.9778 -32.9771 -32.9594 -32.9581 -32.9562 -32.9514 -32.9460 -32.9450
   -32.9418 -32.9348 -32.9345 -32.9329 -32.9247 -32.9037 -32.9017 -32.9015
   -32.8992 -12.8673 -12.7169 -12.6793 -12.5547 -12.0079 -11.9197 -11.8898
   -11.8483 -11.8003 -11.7755 -11.7325 -11.7085 -11.7007 -11.6738 -11.6728
   -11.6458 -11.6249 -11.5946 -11.5042 -11.4845 -11.4654 -11.4603 -11.4447
   -11.3837 -11.3371 -11.3216 -11.3169 -11.2800 -11.1145 -11.1099 -11.0984
   -11.0390 -11.0246 -11.0106 -10.9893 -10.9880 -10.9172 -10.9008 -10.8795
   -10.8631   0.1798   0.2070   0.2310   0.2526   0.3552   0.3716   0.3868
     0.4036   0.4230   0.4347   0.4701   0.5030   0.5633   0.5819   0.6064
     0.6715   0.6737   0.6910   0.7435   0.7456   0.7571   0.7755   0.8257
     0.8344   0.8718   0.9144   0.9784   1.0449   1.0644   1.1199   1.1465
     1.1643   1.2969   1.3507   1.3641   1.4276   1.4350   1.5427   1.5908
     1.6263   1.6640   1.8921   2.0196   2.0489   2.0864   2.0991   2.1072
     2.1542   2.2255   2.2352   2.2494   2.3203   2.3897   2.4074   2.4328
     2.4458   2.4509   2.4578   2.5010   2.5043   2.5051   2.6775   2.7203
     2.7730   2.7808   2.8292   2.8555   2.9260   2.9544   2.9950   2.9982
     3.0440   3.0590   3.0652   3.1055   3.1134   3.1300   3.1475   3.1609
     3.2256   3.2270   3.3609   3.3731   3.4074   3.4883   3.4979   3.5514
     3.5678   3.5790   3.6181   3.6248   3.7150   3.7668   3.7723   3.7827
     3.8316   3.8558   3.8736   3.8771   3.8925   3.9240   3.9363   3.9748
     3.9863   3.9961   4.0286   4.1248   4.1315   4.1814   4.2077   4.2324
     4.5042   4.6613   4.6789   4.7272   4.7695   4.8911   4.9259   5.0254
     5.0278   6.6650   6.8038   6.8858   7.0386   7.1464   7.2129   7.2692
     7.3268   7.7683   7.8792   7.9153   7.9489   7.9729   8.0633   8.0828
     8.1215   8.1225   8.1245   8.1615   8.1662   8.2396   8.2448   8.3266
     8.3625   8.4284   8.4452   8.4574   8.4796   8.4883   8.5212   8.5258
     8.7663   8.7697   8.8207   8.8494   8.8552   8.8651   8.9076   8.9333
     8.9764   9.0142   9.0171   9.0614   9.0922   9.0929   9.1606

          k = 0.0000 0.0000-0.3068 ( 19884 PWs)   bands (ev):

   -59.2868 -59.2833 -59.2805 -59.2770 -59.1998 -59.1980 -59.1965 -59.1948
   -59.1632 -59.1614 -59.1585 -59.1568 -59.1529 -59.1513 -59.1512 -59.1495
   -40.8177 -33.2875 -33.2830 -33.2783 -33.2741 -33.1672 -33.1655 -33.1615
   -33.1600 -33.1416 -33.1312 -33.1282 -33.1250 -33.1233 -33.1214 -33.1206
   -33.1141 -33.1135 -33.0947 -33.0879 -33.0797 -33.0787 -33.0703 -33.0611
   -33.0524 -33.0451 -33.0344 -33.0282 -33.0249 -33.0239 -33.0207 -32.9814
   -32.9767 -32.9622 -32.9582 -32.9564 -32.9558 -32.9503 -32.9463 -32.9447
   -32.9439 -32.9419 -32.9343 -32.9330 -32.9261 -32.9036 -32.9016 -32.9011
   -32.8990 -12.8127 -12.7850 -12.6314 -12.6112 -12.0067 -11.9027 -11.8468
   -11.8385 -11.8004 -11.7858 -11.7459 -11.7153 -11.6947 -11.6778 -11.6616
   -11.6577 -11.6216 -11.5994 -11.5186 -11.4806 -11.4755 -11.4619 -11.4433
   -11.3821 -11.3386 -11.3222 -11.3181 -11.2800 -11.1185 -11.1073 -11.1029
   -11.0249 -11.0238 -11.0104 -10.9962 -10.9879 -10.9166 -10.8906 -10.8808
   -10.8706   0.1784   0.2067   0.2149   0.2236   0.3435   0.3847   0.3869
     0.3908   0.4061   0.4457   0.5172   0.5419   0.5511   0.5703   0.5723
     0.5750   0.6353   0.6806   0.6828   0.6912   0.7690   0.8279   0.8518
     0.8959   0.8971   1.0158   1.0865   1.0997   1.0998   1.1158   1.1174
     1.1230   1.1902   1.2062   1.4312   1.4845   1.5258   1.6244   1.6823
     1.7475   1.8688   1.9115   1.9754   1.9782   1.9979   2.0292   2.0443
     2.0621   2.0709   2.0814   2.1808   2.2198   2.2499   2.3100   2.3418
     2.3459   2.5401   2.6291   2.6494   2.6629   2.6868   2.7081   2.8104
     2.8159   2.8392   2.8769   2.9323   2.9581   3.0071   3.0217   3.0253
     3.0628   3.0914   3.1040   3.1051   3.1336   3.1435   3.1491   3.1725
     3.1782   3.1842   3.2320   3.2329   3.3012   3.3870   3.3918   3.4016
     3.4719   3.5582   3.5758   3.6163   3.6663   3.6704   3.7042   3.7671
     3.7685   3.9214   3.9391   3.9648   3.9722   3.9916   4.0101   4.0679
     4.0698   4.0944   4.1132   4.1192   4.1220   4.1515   4.2145   4.3507
     4.3528   4.5510   4.5852   4.7185   4.8808   4.8858   4.9794   4.9997
     5.0204   6.6725   6.7938   6.9086   7.0174   7.2416   7.3337   7.3523
     7.3847   7.7599   7.8580   7.9298   7.9462   8.0059   8.0382   8.0466
     8.0812   8.0879   8.1185   8.1212   8.1246   8.1710   8.2452   8.2584
     8.3431   8.4231   8.4263   8.4386   8.4666   8.5177   8.5315   8.5347
     8.5349   8.7718   8.7803   8.8102   8.8519   8.9115   8.9547   8.9707
     8.9829   9.0232   9.0747   9.1428   9.1593   9.2092   9.2290

          k =-0.0000-0.4334 0.0000 ( 19880 PWs)   bands (ev):

   -59.2869 -59.2833 -59.2805 -59.2770 -59.1998 -59.1980 -59.1966 -59.1948
   -59.1632 -59.1614 -59.1585 -59.1567 -59.1530 -59.1512 -59.1512 -59.1494
   -40.8177 -33.2874 -33.2825 -33.2781 -33.2734 -33.1681 -33.1649 -33.1620
   -33.1594 -33.1429 -33.1292 -33.1250 -33.1239 -33.1231 -33.1231 -33.1204
   -33.1161 -33.1129 -33.0979 -33.0853 -33.0832 -33.0800 -33.0629 -33.0618
   -33.0603 -33.0450 -33.0277 -33.0247 -33.0246 -33.0205 -33.0159 -32.9864
   -32.9771 -32.9769 -32.9590 -32.9579 -32.9556 -32.9510 -32.9450 -32.9447
   -32.9419 -32.9349 -32.9344 -32.9321 -32.9246 -32.9036 -32.9015 -32.9012
   -32.8991 -12.7810 -12.7667 -12.6418 -12.6291 -11.9433 -11.9068 -11.8569
   -11.8479 -11.8216 -11.7998 -11.7443 -11.7314 -11.6722 -11.6646 -11.6568
   -11.6487 -11.6371 -11.6195 -11.4860 -11.4828 -11.4774 -11.4725 -11.4170
   -11.4126 -11.3304 -11.3199 -11.2933 -11.2744 -11.1159 -11.1064 -11.0308
   -11.0270 -11.0063 -10.9933 -10.9860 -10.9850 -10.9721 -10.9712 -10.9336
   -10.9231   0.2061   0.2283   0.2356   0.2418   0.3661   0.3790   0.4237
     0.4251   0.4581   0.4647   0.6091   0.6270   0.6279   0.6439   0.6889
     0.6933   0.7002   0.7008   0.7142   0.7181   0.8284   0.8503   0.9972
     1.0772   1.1376   1.1415   1.1603   1.2162   1.2229   1.2466   1.3020
     1.3929   1.3991   1.4455   1.4596   1.4907   1.5689   1.5877   1.5999
     1.6016   1.6036   1.6311   1.6327   1.6350   1.7376   1.7868   1.8398
     1.8436   2.0615   2.1136   2.1403   2.2269   2.2755   2.2794   2.2842
     2.3058   2.3142   2.3845   2.4416   2.5339   2.5719   2.5720   2.5782
     2.6161   2.6309   2.6357   2.6426   2.6510   2.6716   2.7710   2.8090
     2.8313   3.0345   3.0403   3.0682   3.0763   3.2653   3.3035   3.3585
     3.3796   3.3892   3.4872   3.5370   3.5433   3.5481   3.5572   3.5686
     3.5717   3.6185   3.6349   3.6772   3.7214   3.8057   3.8176   3.8392
     3.8684   3.8769   3.8845   3.9591   3.9721   4.0123   4.0292   4.1983
     4.2244   4.2451   4.3367   4.3694   4.3715   4.3785   4.3921   4.4026
     4.4201   4.4248   4.4291   4.5359   4.5545   4.5625   4.5757   4.5841
     4.6009   6.7379   6.8057   6.9250   6.9355   7.1593   7.2382   7.2498
     7.2747   7.8305   7.9141   7.9868   7.9872   7.9990   8.0662   8.0996
     8.1709   8.1734   8.1794   8.2210   8.2808   8.2869   8.3014   8.3054
     8.3642   8.3750   8.3951   8.4073   8.4294   8.4755   8.5061   8.6523
     8.7086   8.7938   8.8283   8.8320   8.8657   8.8891   8.9318   8.9613
     8.9815   8.9959   9.0069   9.0504   9.1168   9.1550   9.2011

          k =-0.0000-0.4334-0.3068 ( 19960 PWs)   bands (ev):

   -59.2869 -59.2834 -59.2806 -59.2771 -59.1998 -59.1980 -59.1966 -59.1948
   -59.1632 -59.1615 -59.1586 -59.1568 -59.1530 -59.1513 -59.1512 -59.1495
   -40.8177 -33.2875 -33.2832 -33.2783 -33.2738 -33.1675 -33.1665 -33.1622
   -33.1596 -33.1420 -33.1280 -33.1271 -33.1251 -33.1240 -33.1232 -33.1214
   -33.1152 -33.1143 -33.0952 -33.0885 -33.0813 -33.0796 -33.0705 -33.0617
   -33.0522 -33.0454 -33.0343 -33.0297 -33.0257 -33.0246 -33.0208 -32.9815
   -32.9771 -32.9623 -32.9579 -32.9565 -32.9559 -32.9499 -32.9473 -32.9451
   -32.9437 -32.9423 -32.9355 -32.9340 -32.9272 -32.9033 -32.9014 -32.9009
   -32.8994 -12.7302 -12.7143 -12.7038 -12.6924 -11.9421 -11.9054 -11.8474
   -11.8434 -11.7832 -11.7579 -11.7275 -11.7242 -11.7179 -11.7116 -11.6505
   -11.6415 -11.6313 -11.6242 -11.5014 -11.4988 -11.4737 -11.4689 -11.4154
   -11.4110 -11.3322 -11.3204 -11.2939 -11.2744 -11.1150 -11.1103 -11.0310
   -11.0270 -11.0059 -10.9935 -10.9867 -10.9809 -10.9727 -10.9719 -10.9299
   -10.9236   0.1918   0.2105   0.2211   0.2304   0.3707   0.3798   0.4270
     0.4314   0.4771   0.4896   0.5303   0.5358   0.6166   0.6200   0.6339
     0.6369   0.6984   0.7064   0.7939   0.8274   0.9077   0.9376   0.9660
     0.9791   1.1807   1.2244   1.2395   1.2770   1.2839   1.2884   1.2985
     1.3579   1.3608   1.3886   1.4104   1.4189   1.4435   1.5034   1.5792
     1.5984   1.6187   1.6799   1.6803   1.7261   1.7524   1.8389   1.8498
     1.9024   2.1466   2.1922   2.2434   2.2635   2.2652   2.2742   2.2803
     2.2826   2.3150   2.3172   2.3232   2.3414   2.3563   2.4228   2.4345
     2.4742   2.6355   2.7588   2.7706   2.7906   2.8314   2.8483   3.0067
     3.0518   3.0553   3.0765   3.1319   3.1898   3.1963   3.2353   3.2559
     3.2693   3.2701   3.2862   3.2921   3.3026   3.3413   3.3947   3.5099
     3.5264   3.8059   3.8131   3.8699   3.8738   3.8948   3.9028   3.9053
     3.9307   3.9350   3.9525   4.0022   4.0312   4.0806   4.1418   4.1436
     4.1531   4.1663   4.1702   4.1888   4.2174   4.3330   4.4154   4.4279
     4.4673   4.4956   4.5120   4.5188   4.5297   4.5638   4.5707   4.5833
     4.5959   6.7520   6.8305   6.9056   6.9071   7.2344   7.3196   7.3549
     7.3612   7.7926   7.8650   7.9087   7.9310   8.0041   8.0758   8.1670
     8.1680   8.2190   8.2488   8.2580   8.2911   8.2988   8.3414   8.3420
     8.3489   8.3575   8.3594   8.3852   8.3879   8.3950   8.4101   8.4389
     8.4411   8.7576   8.7913   8.7989   8.8245   8.9252   8.9613   9.0153
     9.0327   9.0515   9.1104   9.1638   9.1783   9.3511   9.3715

          k =-0.5000-0.0000 0.0000 ( 19952 PWs)   bands (ev):

   -59.2867 -59.2831 -59.2808 -59.2773 -59.1990 -59.1975 -59.1971 -59.1957
   -59.1632 -59.1614 -59.1585 -59.1567 -59.1530 -59.1514 -59.1513 -59.1496
   -40.8177 -33.2876 -33.2830 -33.2796 -33.2751 -33.1666 -33.1644 -33.1639
   -33.1618 -33.1401 -33.1369 -33.1290 -33.1275 -33.1218 -33.1184 -33.1180
   -33.1112 -33.1072 -33.0988 -33.0777 -33.0730 -33.0654 -33.0626 -33.0599
   -33.0570 -33.0545 -33.0470 -33.0197 -33.0180 -33.0162 -33.0108 -32.9962
   -32.9940 -32.9813 -32.9772 -32.9586 -32.9532 -32.9402 -32.9342 -32.9304
   -32.9300 -32.9277 -32.9262 -32.9259 -32.9227 -32.9223 -32.9218 -32.9196
   -32.9155 -12.5567 -12.5059 -12.3907 -12.3794 -12.3310 -12.3225 -12.2468
   -12.1824 -11.8156 -11.8066 -11.6992 -11.6856 -11.6190 -11.6017 -11.5616
   -11.5592 -11.5570 -11.5529 -11.5082 -11.5058 -11.4855 -11.4801 -11.4414
   -11.4306 -11.3363 -11.3166 -11.3025 -11.2862 -11.0899 -11.0796 -11.0719
   -11.0674 -11.0430 -11.0367 -11.0074 -10.9957 -10.9079 -10.8999 -10.8704
   -10.8615   0.0474   0.0563   0.0675   0.0687   0.0956   0.1062   0.1104
     0.1247   0.4799   0.5382   0.5481   0.5589   0.5632   0.6012   0.6239
     0.6379   0.6433   0.6742   0.7841   0.8661   0.8798   0.9014   0.9160
     0.9426   0.9428   0.9754   1.0925   1.1159   1.1734   1.1929   1.2018
     1.2244   1.3630   1.4011   1.5944   1.6171   1.6295   1.6370   1.6529
     1.6579   1.7157   1.7328   1.9341   1.9596   1.9877   2.0488   2.0789
     2.0996   2.1516   2.1744   2.1832   2.2101   2.2237   2.2241   2.2418
     2.2513   2.5893   2.6200   2.6985   2.7088   2.7344   2.7745   2.8244
     2.8269   2.8422   2.8436   2.8511   2.8586   2.8634   2.8738   2.9071
     2.9169   2.9209   2.9398   3.1333   3.1697   3.2223   3.2399   3.2402
     3.2566   3.3013   3.3050   3.3266   3.3543   3.4157   3.4289   3.4902
     3.5008   3.6418   3.6675   3.7250   3.7445   3.7534   3.7684   3.8282
     3.8729   3.8823   3.9105   3.9423   3.9558   3.9857   3.9926   3.9953
     4.0352   4.2484   4.2967   4.3961   4.4186   4.4824   4.5230   4.5476
     4.5925   4.6016   4.6089   4.6251   4.6272   4.8073   4.8126   4.9276
     4.9533   6.9705   6.9752   7.0483   7.0549   7.1989   7.2069   7.2283
     7.2349   7.8454   7.8737   7.8746   7.8937   8.0062   8.0086   8.0214
     8.0403   8.0751   8.0960   8.1256   8.1307   8.1506   8.1654   8.3032
     8.3228   8.3228   8.3445   8.3741   8.3820   8.4025   8.4179   8.4279
     8.4434   8.4996   8.5149   8.5569   8.5619   8.5783   8.5956   8.6555
     8.6567   8.6793   8.6825   8.6991   8.7185   8.7254   8.7343

          k =-0.5000-0.0000-0.3068 ( 19896 PWs)   bands (ev):

   -59.2866 -59.2831 -59.2808 -59.2772 -59.1989 -59.1974 -59.1971 -59.1956
   -59.1632 -59.1613 -59.1584 -59.1566 -59.1530 -59.1513 -59.1512 -59.1495
   -40.8177 -33.2871 -33.2827 -33.2792 -33.2748 -33.1658 -33.1640 -33.1636
   -33.1619 -33.1379 -33.1347 -33.1299 -33.1256 -33.1227 -33.1200 -33.1160
   -33.1127 -33.1054 -33.0959 -33.0806 -33.0755 -33.0629 -33.0585 -33.0551
   -33.0537 -33.0533 -33.0479 -33.0379 -33.0325 -33.0012 -33.0004 -32.9993
   -32.9975 -32.9774 -32.9749 -32.9529 -32.9479 -32.9420 -32.9354 -32.9344
   -32.9282 -32.9276 -32.9272 -32.9247 -32.9238 -32.9231 -32.9228 -32.9195
   -32.9176 -12.5031 -12.4646 -12.4493 -12.4115 -12.3324 -12.3063 -12.2729
   -12.2472 -11.7415 -11.7296 -11.6721 -11.6522 -11.6410 -11.6049 -11.5896
   -11.5638 -11.5514 -11.5510 -11.5258 -11.5192 -11.5082 -11.5047 -11.4609
   -11.4471 -11.3305 -11.3108 -11.3015 -11.2850 -11.0910 -11.0830 -11.0575
   -11.0524 -11.0449 -11.0377 -11.0146 -11.0024 -10.8993 -10.8915 -10.8769
   -10.8677   0.0340   0.0558   0.0586   0.0663   0.0892   0.0920   0.0950
     0.1141   0.4791   0.5352   0.5407   0.5445   0.6167   0.6491   0.6519
     0.6552   0.6636   0.6981   0.7065   0.7493   0.8546   0.8621   0.9008
     0.9629   1.1015   1.1050   1.1502   1.1680   1.2099   1.2463   1.2755
     1.2983   1.3577   1.3795   1.4138   1.4429   1.6037   1.6177   1.6396
     1.6436   1.6466   1.6721   1.6741   1.6862   2.0198   2.0949   2.1082
     2.1131   2.1405   2.1483   2.3054   2.3117   2.4707   2.5060   2.5553
     2.5590   2.5656   2.6201   2.6233   2.6428   2.6742   2.6951   2.7298
     2.7761   2.8127   2.8295   2.8532   2.8725   2.8839   2.8928   2.9103
     2.9134   2.9148   2.9246   2.9293   2.9502   3.2619   3.2863   3.2954
     3.3034   3.3515   3.3550   3.3714   3.3735   3.4186   3.4312   3.4515
     3.4524   3.4863   3.4929   3.5442   3.5603   3.8939   3.8994   3.9051
     3.9183   3.9270   3.9523   3.9661   3.9947   3.9974   4.0139   4.0341
     4.0631   4.2086   4.2620   4.3192   4.3304   4.4214   4.4695   4.5061
     4.5144   4.6213   4.6984   4.7543   4.7575   4.7879   4.7961   4.9208
     4.9450   7.0620   7.0674   7.1303   7.1373   7.1830   7.1890   7.1940
     7.2007   7.8714   7.8895   7.9244   7.9503   7.9654   7.9851   8.0035
     8.0071   8.0310   8.0506   8.1189   8.1335   8.1335   8.1468   8.2241
     8.2253   8.3932   8.3971   8.4047   8.4180   8.4282   8.4315   8.4898
     8.4959   8.5016   8.5082   8.5372   8.5470   8.5473   8.5539   8.5908
     8.5946   8.6390   8.6533   8.6594   8.6713   8.7504   8.7567

          k =-0.5000-0.4334 0.0000 ( 19892 PWs)   bands (ev):

   -59.2866 -59.2831 -59.2807 -59.2772 -59.1989 -59.1974 -59.1971 -59.1956
   -59.1632 -59.1613 -59.1584 -59.1566 -59.1530 -59.1513 -59.1512 -59.1495
   -40.8177 -33.2870 -33.2823 -33.2790 -33.2744 -33.1664 -33.1642 -33.1637
   -33.1616 -33.1394 -33.1352 -33.1285 -33.1247 -33.1217 -33.1186 -33.1174
   -33.1133 -33.1075 -33.0993 -33.0774 -33.0725 -33.0649 -33.0622 -33.0596
   -33.0565 -33.0539 -33.0468 -33.0189 -33.0172 -33.0154 -33.0101 -32.9959
   -32.9937 -32.9809 -32.9768 -32.9583 -32.9529 -32.9402 -32.9341 -32.9304
   -32.9299 -32.9276 -32.9261 -32.9258 -32.9227 -32.9222 -32.9217 -32.9196
   -32.9155 -12.4781 -12.4573 -12.4241 -12.4039 -12.3258 -12.3087 -12.2657
   -12.2447 -11.7609 -11.7503 -11.7371 -11.7268 -11.5976 -11.5896 -11.5810
   -11.5751 -11.5440 -11.5352 -11.5243 -11.5164 -11.4671 -11.4650 -11.4598
   -11.4574 -11.3202 -11.3011 -11.3004 -11.2843 -11.0766 -11.0718 -11.0703
   -11.0647 -11.0046 -10.9896 -10.9839 -10.9700 -10.9644 -10.9593 -10.9430
   -10.9372   0.0551   0.0722   0.0760   0.0773   0.0846   0.0864   0.1004
     0.1137   0.5785   0.5888   0.5940   0.6046   0.6849   0.7662   0.7966
     0.8210   0.8291   0.8327   0.8345   0.8425   1.0360   1.0932   1.1321
     1.1373   1.1638   1.2268   1.2453   1.2594   1.2826   1.3038   1.3625
     1.3840   1.3986   1.3994   1.4316   1.4373   1.4478   1.4735   1.5064
     1.5130   1.6615   1.6711   1.6714   1.6764   1.6948   1.7065   1.7426
     1.7552   2.1115   2.1363   2.2029   2.2193   2.2243   2.2646   2.2677
     2.2840   2.4367   2.4459   2.4570   2.4770   2.5383   2.5492   2.5508
     2.5669   2.7562   2.7697   2.7762   2.8494   2.8987   2.9101   2.9229
     2.9357   2.9486   2.9556   2.9866   2.9937   3.1611   3.2062   3.2248
     3.2328   3.2572   3.2788   3.3208   3.3259   3.5360   3.5660   3.6363
     3.6561   3.7278   3.7698   3.7987   3.8234   3.8582   3.8768   3.9004
     3.9058   4.1188   4.1263   4.1537   4.2187   4.2251   4.2347   4.2691
     4.3033   4.3253   4.3412   4.3457   4.3457   4.3765   4.4091   4.4246
     4.4474   4.4845   4.4892   4.4963   4.5073   4.5659   4.5745   4.5780
     4.5956   6.9895   6.9946   7.0413   7.0490   7.1988   7.2085   7.2260
     7.2325   7.9250   7.9519   7.9939   8.0176   8.0321   8.0730   8.0769
     8.0816   8.0851   8.0920   8.1171   8.1313   8.2831   8.2933   8.3002
     8.3163   8.3328   8.3482   8.3796   8.3854   8.3934   8.3958   8.4000
     8.4084   8.5635   8.5711   8.5824   8.5913   8.6017   8.6017   8.6334
     8.6359   8.6572   8.6702   8.6745   8.6761   8.6943   8.7121

          k =-0.5000-0.4334-0.3068 ( 19872 PWs)   bands (ev):

   -59.2866 -59.2831 -59.2807 -59.2773 -59.1989 -59.1974 -59.1971 -59.1957
   -59.1631 -59.1614 -59.1584 -59.1566 -59.1529 -59.1513 -59.1513 -59.1495
   -40.8177 -33.2868 -33.2822 -33.2788 -33.2743 -33.1659 -33.1639 -33.1638
   -33.1617 -33.1375 -33.1333 -33.1269 -33.1260 -33.1236 -33.1205 -33.1152
   -33.1152 -33.1062 -33.0968 -33.0799 -33.0749 -33.0628 -33.0581 -33.0554
   -33.0536 -33.0533 -33.0478 -33.0377 -33.0323 -33.0009 -32.9999 -32.9991
   -32.9971 -32.9776 -32.9751 -32.9528 -32.9479 -32.9415 -32.9349 -32.9341
   -32.9281 -32.9275 -32.9271 -32.9246 -32.9238 -32.9230 -32.9227 -32.9196
   -32.9174 -12.4288 -12.4051 -12.3918 -12.3770 -12.3718 -12.3492 -12.3377
   -12.3190 -11.7114 -11.6965 -11.6923 -11.6763 -11.5963 -11.5862 -11.5842
   -11.5750 -11.5420 -11.5389 -11.5220 -11.5201 -11.5022 -11.4979 -11.4968
   -11.4923 -11.3180 -11.2998 -11.2985 -11.2832 -11.0765 -11.0731 -11.0707
   -11.0683 -10.9993 -10.9865 -10.9848 -10.9722 -10.9564 -10.9514 -10.9465
   -10.9406   0.0405   0.0688   0.0700   0.0731   0.0736   0.0757   0.0876
     0.1046   0.6046   0.6158   0.6203   0.6281   0.6627   0.6832   0.7115
     0.7202   0.8836   1.0348   1.0358   1.0363   1.0595   1.0628   1.0661
     1.1007   1.1285   1.2167   1.2285   1.2513   1.2527   1.2885   1.2921
     1.2994   1.3611   1.4237   1.4672   1.5051   1.5077   1.5468   1.5480
     1.5584   1.5595   1.5627   1.5755   1.5798   1.6668   1.6782   1.6824
     1.6897   2.1054   2.1165   2.1937   2.2033   2.2212   2.2224   2.2368
     2.2433   2.6019   2.6072   2.6410   2.6605   2.6742   2.7327   2.7494
     2.7550   2.7655   2.7772   2.8246   2.8279   2.8373   2.8384   2.8858
     2.9005   2.9006   2.9091   2.9897   2.9914   2.9939   2.9947   3.0129
     3.0157   3.2662   3.2952   3.4064   3.4137   3.4489   3.4607   3.4677
     3.4765   3.7861   3.8416   3.8499   3.8780   3.9026   3.9029   3.9204
     3.9360   4.1340   4.1478   4.1647   4.1991   4.2097   4.2258   4.2413
     4.2484   4.3279   4.3370   4.3618   4.3798   4.3940   4.4476   4.4604
     4.4630   4.4649   4.4788   4.4800   4.5034   4.5655   4.5732   4.5846
     4.5933   7.0591   7.0654   7.1284   7.1348   7.1858   7.1865   7.1895
     7.1961   7.9268   7.9520   7.9959   8.0191   8.0333   8.0586   8.0765
     8.0799   8.1530   8.1724   8.1782   8.1980   8.2374   8.2382   8.2454
     8.2506   8.2964   8.3331   8.3531   8.3770   8.4089   8.4134   8.4172
     8.4179   8.4903   8.4982   8.5723   8.5834   8.5977   8.6062   8.6077
     8.6212   8.6552   8.6560   8.6610   8.6701   8.6721   8.6972

     the Fermi energy is     6.0852 ev

!    total energy              =   -5161.21787934 Ry
     Harris-Foulkes estimate   =   -5161.21787946 Ry
     estimated scf accuracy    <       0.00000025 Ry

     total all-electron energy =    -36469.777620 Ry

     The total energy is the sum of the following terms:

     one-electron contribution =   -2152.09492318 Ry
     hartree contribution      =    1266.75379077 Ry
     xc contribution           =    -639.56906241 Ry
     ewald contribution        =   -2097.41272020 Ry
     one-center paw contrib.   =   -1538.15608393 Ry
     smearing contrib. (-TS)   =      -0.73888040 Ry

     convergence has been achieved in  26 iterations

     negative rho (up, down):  2.426E-03 0.000E+00

     Forces acting on atoms (cartesian axes, Ry/au):

     atom    1 type  1   force =     0.00009846   -0.00253814   -0.00540074
     atom    2 type  1   force =    -0.01687645   -0.03422113   -0.01835762
     atom    3 type  1   force =    -0.01637388   -0.03314946    0.01825693
     atom    4 type  1   force =     0.00009707   -0.00255435    0.00537447
     atom    5 type  2   force =    -0.00000757    0.00104927    0.00001338
     atom    6 type  2   force =    -0.00000175   -0.00124092    0.00078271
     atom    7 type  2   force =     0.00061135    0.00240252    0.00470258
     atom    8 type  2   force =    -0.00023346    0.00063841    0.00249474
     atom    9 type  2   force =     0.01497929    0.02297296    0.01278184
     atom   10 type  2   force =     0.00897686    0.00425818   -0.00020045
     atom   11 type  2   force =     0.01452406    0.02233507   -0.01253909
     atom   12 type  2   force =    -0.00022449    0.00058060   -0.00243741
     atom   13 type  2   force =     0.00059040    0.00238206   -0.00464905
     atom   14 type  2   force =    -0.00000156   -0.00122480   -0.00077457
     atom   15 type  1   force =     0.00007177   -0.00072696   -0.00445696
     atom   16 type  1   force =    -0.01318155    0.01773597   -0.01501432
     atom   17 type  1   force =    -0.01280120    0.01738502    0.01501558
     atom   18 type  1   force =     0.00007088   -0.00071898    0.00443904
     atom   19 type  2   force =    -0.00000104    0.00109271    0.00002731
     atom   20 type  2   force =    -0.00000863   -0.00211690    0.00124006
     atom   21 type  2   force =     0.00121631    0.00155737    0.00336363
     atom   22 type  2   force =    -0.00009157   -0.00159203    0.00138275
     atom   23 type  2   force =     0.00009512   -0.00084226   -0.00012136
     atom   24 type  2   force =     0.01311839   -0.01565921   -0.00014199
     atom   25 type  2   force =     0.00007723   -0.00082236    0.00009584
     atom   26 type  2   force =    -0.00009625   -0.00157530   -0.00140187
     atom   27 type  2   force =     0.00119491    0.00156735   -0.00333801
     atom   28 type  2   force =    -0.00000928   -0.00211444   -0.00121600
     atom   29 type  1   force =    -0.00002203   -0.00252437   -0.00850330
     atom   30 type  1   force =     0.01733380   -0.03632292   -0.01954583
     atom   31 type  1   force =     0.01680558   -0.03516207    0.01942057
     atom   32 type  1   force =    -0.00002109   -0.00253634    0.00835457
     atom   33 type  2   force =     0.00001283    0.00052497    0.00005196
     atom   34 type  2   force =     0.00000644   -0.00124537    0.00114290
     atom   35 type  2   force =    -0.00062619    0.00246013    0.00485321
     atom   36 type  2   force =     0.00021919    0.00396668    0.00906371
     atom   37 type  2   force =    -0.01552875    0.02417604    0.01354303
     atom   38 type  2   force =    -0.00937000    0.00467065   -0.00021600
     atom   39 type  2   force =    -0.01507973    0.02351054   -0.01331091
     atom   40 type  2   force =     0.00020985    0.00376588   -0.00880034
     atom   41 type  2   force =    -0.00060463    0.00243906   -0.00479507
     atom   42 type  2   force =     0.00000633   -0.00125203   -0.00112002
     atom   43 type  1   force =     0.00000175   -0.00046015   -0.00996067
     atom   44 type  1   force =     0.01331217    0.01850890   -0.01600922
     atom   45 type  1   force =     0.01292262    0.01814339    0.01600800
     atom   46 type  1   force =     0.00000195   -0.00047185    0.00970561
     atom   47 type  2   force =     0.00000760    0.00048303    0.00004260
     atom   48 type  2   force =     0.00001208   -0.00188869    0.00169502
     atom   49 type  2   force =    -0.00122863    0.00155988    0.00342676
     atom   50 type  2   force =     0.00016294   -0.01031645    0.01042755
     atom   51 type  2   force =    -0.00008298   -0.00096538   -0.00007850
     atom   52 type  2   force =    -0.01369488   -0.01659750   -0.00014690
     atom   53 type  2   force =    -0.00007019   -0.00094086    0.00005612
     atom   54 type  2   force =     0.00015912   -0.00994582   -0.01014147
     atom   55 type  2   force =    -0.00120976    0.00157127   -0.00340395
     atom   56 type  2   force =     0.00001211   -0.00184430   -0.00165359
     atom   57 type  3   force =     0.00053911    0.02183345   -0.00002729

     Total force =     0.130176     Total SCF correction =     0.001923

     BFGS Geometry Optimization

     number of scf cycles    =   1
     number of bfgs steps    =   0

     energy   new            =   -5161.2178793365 Ry

     new trust radius        =       0.0447420866 bohr
     new conv_thr            =       0.0000010000 Ry


ATOMIC_POSITIONS (angstrom)
V        1.108996084   1.581607832   1.732360691
V        2.890350137   2.468319996   4.089942128
V        2.890616086   2.468887102   7.579820771
V        1.108995353   1.581599251   9.937442112
O        1.108967639   2.005757244   0.000007078
O        1.108951271  -0.038131955   1.702612201
O        2.899626670   2.029064710   2.099874098
O        1.108843207   2.041933638   3.738841208
O        2.907218982   4.119007183   4.139462797
O        2.904062192   2.066404980   5.834802193
O        2.906978085   4.118669624   7.530482192
O        1.108847953   2.041903048   7.931006009
O        2.899615584   2.029053883   9.569971108
O        1.108951371  -0.038123423   9.967209331
V        1.108980994   5.713331794   1.732860116
V        2.892304429   6.626580041   4.091711326
V        2.892505702   6.626394324   7.578105524
V        1.108980524   5.713336017   9.936947107
O        1.108970126   6.136545758   0.000014450
O        1.108946666   4.092170026   1.702854219
O        2.899945835   6.159383006   2.099165555
O        1.108917325   6.171518869   3.738252766
O        2.899341656   8.237170236   4.132634714
O        2.906252827   6.186630681   5.834833129
O        2.899332186   8.237180767   7.537168311
O        1.108914848   6.171527723   7.931553990
O        2.899934510   6.159388289   9.570664881
O        1.108946325   4.092171326   9.966975739
V        4.689605916   1.581614372   1.730718886
V        6.489127013   2.467207033   4.089313357
V        6.488847491   2.467821326   7.580436542
V        4.689606414   1.581608038   9.939019112
O        4.689652024   2.005479048   0.000027498
O        4.689629202  -0.038135053   1.702802807
O        6.479645384   2.029094453   2.099953805
O        4.689756335   2.043694137   3.742317355
O        6.471748417   4.119643075   4.139865598
O        6.475027045   2.066622506   5.834793963
O        6.471986029   4.119290908   7.530073763
O        4.689751389   2.043587882   7.927638890
O        6.479656797   2.029083301   9.569893835
O        4.689629142  -0.038138580   9.967026529
V        4.689617537   5.713472241   1.729947675
V        6.486997895   6.626988311   4.091184851
V        6.486791751   6.626794890   7.578630689
V        4.689617643   5.713466048   9.939734052
O        4.689648292   6.136222383   0.000022541
O        4.689631219   4.092290043   1.703094976
O        6.479325621   6.159383586   2.099198965
O        4.689725601   6.166901363   3.743039067
O        6.479921002   8.237104339   4.132657398
O        6.472737448   6.186133413   5.834830530
O        6.479927769   8.237117316   7.537147291
O        4.689723577   6.167097490   7.926929197
O        6.479335607   6.159389616   9.570629985
O        4.689631236   4.092313535   9.966744176
Li       4.719941513   4.331209991   5.819641787



     Writing output data file li_v16o40.save/
     NEW-OLD atomic charge density approx. for the potential

     Check: negative core charge=   -0.000007

     negative rho (up, down):  2.446E-03 0.000E+00

     total cpu time spent up to now is     2214.2 secs

     Self-consistent Calculation

     iteration #  1     ecut=    40.00 Ry     beta= 0.40
     Davidson diagonalization with overlap
     c_bands:  1 eigenvalues not converged
     ethr =  1.00E-06,  avg # of iterations = 14.1

     negative rho (up, down):  2.510E-03 0.000E+00

     total cpu time spent up to now is     2641.0 secs

     total energy              =   -5161.22217127 Ry
     Harris-Foulkes estimate   =   -5161.25102081 Ry
     estimated scf accuracy    <       0.00773956 Ry

     iteration #  2     ecut=    40.00 Ry     beta= 0.40
     Davidson diagonalization with overlap
     ethr =  1.72E-06,  avg # of iterations =  7.2

     negative rho (up, down):  2.576E-03 0.000E+00

     total cpu time spent up to now is     2885.2 secs

     total energy              =   -5161.21929334 Ry
     Harris-Foulkes estimate   =   -5161.22933771 Ry
     estimated scf accuracy    <       0.06289194 Ry

     iteration #  3     ecut=    40.00 Ry     beta= 0.40
     Davidson diagonalization with overlap
     ethr =  1.72E-06,  avg # of iterations =  8.6

     negative rho (up, down):  2.632E-03 0.000E+00

     total cpu time spent up to now is     3083.0 secs

     total energy              =   -5161.22423942 Ry
     Harris-Foulkes estimate   =   -5161.22512255 Ry
     estimated scf accuracy    <       0.00505647 Ry

     iteration #  4     ecut=    40.00 Ry     beta= 0.40
     Davidson diagonalization with overlap
     ethr =  1.12E-06,  avg # of iterations =  2.5

     negative rho (up, down):  2.682E-03 0.000E+00

     total cpu time spent up to now is     3204.7 secs

     total energy              =   -5161.22507249 Ry
     Harris-Foulkes estimate   =   -5161.22524847 Ry
     estimated scf accuracy    <       0.00303171 Ry

     iteration #  5     ecut=    40.00 Ry     beta= 0.40
     Davidson diagonalization with overlap
     ethr =  6.72E-07,  avg # of iterations =  5.2

     negative rho (up, down):  2.705E-03 0.000E+00

     total cpu time spent up to now is     3337.7 secs

     total energy              =   -5161.22539509 Ry
     Harris-Foulkes estimate   =   -5161.22553205 Ry
     estimated scf accuracy    <       0.00109896 Ry

     iteration #  6     ecut=    40.00 Ry     beta= 0.40
     Davidson diagonalization with overlap
     ethr =  2.44E-07,  avg # of iterations =  6.8

     negative rho (up, down):  2.722E-03 0.000E+00

     total cpu time spent up to now is     3480.8 secs

     total energy              =   -5161.22557869 Ry
     Harris-Foulkes estimate   =   -5161.22553311 Ry
     estimated scf accuracy    <       0.00014386 Ry

     iteration #  7     ecut=    40.00 Ry     beta= 0.40
     Davidson diagonalization with overlap
     ethr =  3.19E-08,  avg # of iterations =  6.1

     negative rho (up, down):  2.736E-03 0.000E+00

     total cpu time spent up to now is     3698.2 secs

     total energy              =   -5161.22567473 Ry
     Harris-Foulkes estimate   =   -5161.22564245 Ry
     estimated scf accuracy    <       0.00024934 Ry

     iteration #  8     ecut=    40.00 Ry     beta= 0.40
     Davidson diagonalization with overlap
     ethr =  3.19E-08,  avg # of iterations =  6.6

     negative rho (up, down):  2.751E-03 0.000E+00

     total cpu time spent up to now is     3837.8 secs

     total energy              =   -5161.22573071 Ry
     Harris-Foulkes estimate   =   -5161.22570134 Ry
     estimated scf accuracy    <       0.00006274 Ry

     iteration #  9     ecut=    40.00 Ry     beta= 0.40
     Davidson diagonalization with overlap
     ethr =  1.39E-08,  avg # of iterations =  7.4

     negative rho (up, down):  2.761E-03 0.000E+00

     total cpu time spent up to now is     3999.3 secs

     total energy              =   -5161.22575064 Ry
     Harris-Foulkes estimate   =   -5161.22574880 Ry
     estimated scf accuracy    <       0.00010071 Ry

     iteration # 10     ecut=    40.00 Ry     beta= 0.40
     Davidson diagonalization with overlap
     ethr =  1.39E-08,  avg # of iterations =  4.0

     negative rho (up, down):  2.767E-03 0.000E+00

     total cpu time spent up to now is     4116.8 secs

     total energy              =   -5161.22575832 Ry
     Harris-Foulkes estimate   =   -5161.22575760 Ry
     estimated scf accuracy    <       0.00001232 Ry

     iteration # 11     ecut=    40.00 Ry     beta= 0.40
     Davidson diagonalization with overlap
     ethr =  2.73E-09,  avg # of iterations =  5.9

     negative rho (up, down):  2.772E-03 0.000E+00

     total cpu time spent up to now is     4281.7 secs

     total energy              =   -5161.22576239 Ry
     Harris-Foulkes estimate   =   -5161.22576115 Ry
     estimated scf accuracy    <       0.00000541 Ry

     iteration # 12     ecut=    40.00 Ry     beta= 0.40
     Davidson diagonalization with overlap
     ethr =  1.20E-09,  avg # of iterations =  7.8

     negative rho (up, down):  2.774E-03 0.000E+00

     total cpu time spent up to now is     4435.0 secs

     total energy              =   -5161.22576307 Ry
     Harris-Foulkes estimate   =   -5161.22576337 Ry
     estimated scf accuracy    <       0.00000240 Ry

     iteration # 13     ecut=    40.00 Ry     beta= 0.40
     Davidson diagonalization with overlap
     ethr =  5.32E-10,  avg # of iterations =  6.6

     negative rho (up, down):  2.777E-03 0.000E+00

     total cpu time spent up to now is     4584.9 secs

     total energy              =   -5161.22576400 Ry
     Harris-Foulkes estimate   =   -5161.22576364 Ry
     estimated scf accuracy    <       0.00000273 Ry

     iteration # 14     ecut=    40.00 Ry     beta= 0.40
     Davidson diagonalization with overlap
     ethr =  5.32E-10,  avg # of iterations =  3.8

     negative rho (up, down):  2.780E-03 0.000E+00

     total cpu time spent up to now is     4710.1 secs

     End of self-consistent calculation

          k = 0.0000 0.0000 0.0000 ( 19937 PWs)   bands (ev):

   -59.2896 -59.2867 -59.2840 -59.2812 -59.2059 -59.2042 -59.2025 -59.2009
   -59.1801 -59.1783 -59.1783 -59.1766 -59.1729 -59.1711 -59.1698 -59.1680
   -40.5848 -33.2227 -33.2196 -33.2162 -33.2137 -33.1974 -33.1954 -33.1915
   -33.1899 -33.1601 -33.1511 -33.1491 -33.1463 -33.1349 -33.1332 -33.1313
   -33.1300 -33.1284 -33.1214 -33.1095 -33.1063 -33.0946 -33.0775 -33.0604
   -33.0545 -33.0543 -33.0465 -33.0424 -33.0339 -33.0245 -33.0152 -33.0115
   -33.0035 -32.9837 -32.9721 -32.9693 -32.9661 -32.9647 -32.9618 -32.9610
   -32.9597 -32.9525 -32.9411 -32.9379 -32.9370 -32.9266 -32.9244 -32.9133
   -32.9110 -12.8806 -12.7356 -12.6911 -12.5698 -11.9766 -11.9185 -11.8999
   -11.8240 -11.8029 -11.7768 -11.7385 -11.7247 -11.7029 -11.6791 -11.6776
   -11.6676 -11.6321 -11.6138 -11.5355 -11.4952 -11.4926 -11.4728 -11.4556
   -11.4165 -11.2292 -11.2234 -11.1983 -11.1623 -11.1549 -11.1282 -11.1281
   -11.0622 -11.0493 -11.0453 -11.0040 -11.0002 -10.9361 -10.9239 -10.8981
   -10.8807   0.1653   0.1732   0.2147   0.2597   0.2991   0.3708   0.3960
     0.3971   0.4043   0.4545   0.4571   0.5331   0.5492   0.5668   0.6099
     0.6587   0.6743   0.7135   0.7256   0.7303   0.7554   0.8242   0.8471
     0.8747   0.8806   0.8942   0.9970   1.0201   1.0539   1.1395   1.1550
     1.1688   1.2930   1.3692   1.3694   1.3787   1.4228   1.5717   1.6061
     1.6259   1.6265   1.8988   2.0459   2.0656   2.0895   2.1215   2.1465
     2.2062   2.2286   2.2313   2.2738   2.3241   2.3665   2.3952   2.4406
     2.4456   2.4537   2.4770   2.4864   2.4878   2.5000   2.6774   2.7198
     2.7716   2.8558   2.8773   2.8831   2.9292   2.9746   2.9941   3.0139
     3.0382   3.0436   3.0563   3.0830   3.1605   3.1644   3.1876   3.2112
     3.2152   3.2155   3.3554   3.4026   3.4656   3.5166   3.5217   3.5435
     3.5548   3.5630   3.6168   3.6616   3.7499   3.7591   3.7706   3.7829
     3.8135   3.8159   3.8684   3.8723   3.8950   3.9160   3.9233   3.9719
     3.9840   3.9994   4.0181   4.1082   4.1345   4.1827   4.1871   4.2045
     4.4936   4.6984   4.7144   4.7327   4.7940   4.8603   4.9173   5.0090
     5.0199   6.6463   6.7867   6.8681   7.0255   7.1677   7.1725   7.2916
     7.2966   7.7685   7.8428   7.8870   7.8924   7.9688   8.0350   8.0701
     8.0852   8.0858   8.0991   8.1115   8.1250   8.2176   8.2398   8.3055
     8.3278   8.4253   8.4284   8.4395   8.4585   8.4661   8.5020   8.5131
     8.7296   8.7491   8.8041   8.8315   8.8439   8.8502   8.8886   8.9221
     8.9300   8.9505   9.0083   9.0203   9.0453   9.0691   9.1293

          k = 0.0000 0.0000-0.3068 ( 19884 PWs)   bands (ev):

   -59.2896 -59.2866 -59.2840 -59.2811 -59.2059 -59.2043 -59.2025 -59.2009
   -59.1801 -59.1783 -59.1782 -59.1765 -59.1728 -59.1711 -59.1697 -59.1680
   -40.5848 -33.2225 -33.2197 -33.2152 -33.2127 -33.1973 -33.1955 -33.1912
   -33.1898 -33.1589 -33.1525 -33.1478 -33.1463 -33.1338 -33.1328 -33.1326
   -33.1294 -33.1283 -33.1182 -33.1144 -33.0993 -33.0939 -33.0862 -33.0540
   -33.0539 -33.0466 -33.0465 -33.0422 -33.0419 -33.0327 -33.0239 -33.0066
   -33.0008 -32.9709 -32.9686 -32.9681 -32.9664 -32.9616 -32.9609 -32.9603
   -32.9600 -32.9515 -32.9511 -32.9398 -32.9370 -32.9265 -32.9243 -32.9127
   -32.9111 -12.8235 -12.8051 -12.6408 -12.6284 -11.9751 -11.9158 -11.8257
   -11.8229 -11.8218 -11.7948 -11.7488 -11.7072 -11.6967 -11.6917 -11.6804
   -11.6566 -11.6368 -11.5996 -11.5604 -11.5200 -11.4918 -11.4700 -11.4528
   -11.4143 -11.2306 -11.2252 -11.2028 -11.1574 -11.1549 -11.1386 -11.1288
   -11.0494 -11.0451 -11.0378 -11.0129 -11.0038 -10.9359 -10.9096 -10.8979
   -10.8921   0.1638   0.1689   0.1934   0.2420   0.2939   0.3606   0.3966
     0.4059   0.4130   0.4220   0.5136   0.5463   0.5578   0.5583   0.5593
     0.5862   0.6652   0.6673   0.6732   0.6743   0.8089   0.8534   0.8678
     0.8935   0.9249   1.0345   1.0574   1.0929   1.1148   1.1219   1.1262
     1.1408   1.1555   1.1842   1.4408   1.4824   1.5447   1.5883   1.7203
     1.7527   1.8948   1.9267   1.9674   1.9689   1.9927   2.0363   2.0367
     2.0652   2.0751   2.0920   2.2064   2.2696   2.2737   2.2953   2.3276
     2.3324   2.5507   2.6144   2.6372   2.6466   2.6892   2.7076   2.8393
     2.8861   2.8953   2.9249   2.9825   3.0135   3.0207   3.0274   3.0292
     3.0499   3.0700   3.0814   3.1033   3.1277   3.1309   3.1917   3.1994
     3.2070   3.2094   3.2106   3.2417   3.2919   3.3860   3.4055   3.4330
     3.4751   3.5908   3.6132   3.6378   3.6467   3.6689   3.6882   3.7529
     3.7613   3.9097   3.9290   3.9605   3.9626   4.0078   4.0129   4.0522
     4.0730   4.0899   4.1030   4.1085   4.1243   4.1467   4.1701   4.3364
     4.3489   4.5840   4.5940   4.7813   4.8522   4.8977   4.9709   4.9840
     5.0011   6.6525   6.7787   6.8882   7.0072   7.2711   7.3082   7.3499
     7.3608   7.7574   7.8287   7.8893   7.9217   7.9767   7.9945   8.0120
     8.0620   8.0714   8.0828   8.0831   8.0885   8.1413   8.2102   8.2395
     8.3290   8.4059   8.4129   8.4185   8.4739   8.4937   8.5156   8.5170
     8.5269   8.7459   8.7507   8.7993   8.8397   8.8823   8.9185   8.9389
     8.9521   8.9617   9.0105   9.1270   9.1295   9.2065   9.2206

          k =-0.0000-0.4334 0.0000 ( 19880 PWs)   bands (ev):

   -59.2896 -59.2866 -59.2840 -59.2811 -59.2060 -59.2042 -59.2025 -59.2008
   -59.1801 -59.1783 -59.1782 -59.1765 -59.1728 -59.1710 -59.1698 -59.1680
   -40.5848 -33.2223 -33.2180 -33.2144 -33.2111 -33.1988 -33.1957 -33.1925
   -33.1899 -33.1603 -33.1495 -33.1473 -33.1438 -33.1362 -33.1331 -33.1323
   -33.1301 -33.1276 -33.1223 -33.1091 -33.1062 -33.0945 -33.0772 -33.0599
   -33.0542 -33.0541 -33.0463 -33.0419 -33.0334 -33.0242 -33.0149 -33.0110
   -33.0030 -32.9833 -32.9717 -32.9688 -32.9653 -32.9647 -32.9616 -32.9609
   -32.9592 -32.9521 -32.9408 -32.9382 -32.9363 -32.9265 -32.9241 -32.9132
   -32.9108 -12.8108 -12.7617 -12.6778 -12.6267 -11.9200 -11.8729 -11.8721
   -11.8432 -11.8203 -11.7944 -11.7548 -11.7185 -11.7002 -11.6815 -11.6797
   -11.6743 -11.6467 -11.6150 -11.5219 -11.5092 -11.4887 -11.4632 -11.4563
   -11.4341 -11.1994 -11.1964 -11.1645 -11.1585 -11.1507 -11.1294 -11.0948
   -11.0825 -11.0261 -11.0109 -11.0062 -10.9923 -10.9809 -10.9760 -10.9684
   -10.9632   0.1791   0.1905   0.2171   0.2656   0.3061   0.3806   0.4084
     0.4091   0.4414   0.5007   0.5866   0.6048   0.6201   0.6346   0.6727
     0.6834   0.7004   0.7235   0.7314   0.7968   0.7979   0.8175   1.0256
     1.0866   1.1730   1.1793   1.1869   1.1905   1.2108   1.2461   1.3607
     1.3979   1.4179   1.4497   1.5086   1.5111   1.5696   1.5782   1.5796
     1.5933   1.5990   1.6228   1.6257   1.6452   1.7130   1.7873   1.8286
     1.8318   2.0853   2.1362   2.1985   2.2286   2.2589   2.2648   2.2809
     2.3050   2.3398   2.3706   2.5122   2.5635   2.5662   2.5908   2.5913
     2.5948   2.6204   2.6250   2.6469   2.6589   2.7086   2.7336   2.8671
     2.8976   3.0081   3.0184   3.0440   3.0695   3.3083   3.3501   3.4001
     3.4441   3.4695   3.4883   3.5173   3.5214   3.5451   3.5556   3.5797
     3.6059   3.6255   3.6500   3.6645   3.6859   3.8089   3.8183   3.8471
     3.8512   3.8596   3.8600   3.9534   3.9616   4.0066   4.0256   4.2112
     4.2637   4.2757   4.3250   4.3752   4.3793   4.3850   4.3949   4.3975
     4.4027   4.4331   4.4348   4.5249   4.5411   4.5476   4.5542   4.5694
     4.5714   6.7129   6.7941   6.9061   6.9248   7.1808   7.2022   7.2523
     7.2603   7.8323   7.9102   7.9309   7.9505   7.9662   8.0377   8.0471
     8.1539   8.1637   8.1711   8.1801   8.2139   8.2339   8.2503   8.2931
     8.3615   8.3734   8.3921   8.3983   8.4234   8.4521   8.5027   8.5896
     8.7263   8.7589   8.7875   8.8202   8.8573   8.8763   8.9136   8.9384
     8.9507   8.9595   8.9900   8.9967   9.0317   9.1741   9.2133

          k =-0.0000-0.4334-0.3068 ( 19960 PWs)   bands (ev):

   -59.2896 -59.2867 -59.2840 -59.2812 -59.2059 -59.2043 -59.2026 -59.2009
   -59.1801 -59.1783 -59.1783 -59.1765 -59.1728 -59.1711 -59.1698 -59.1681
   -40.5848 -33.2216 -33.2196 -33.2146 -33.2114 -33.1984 -33.1971 -33.1927
   -33.1901 -33.1594 -33.1516 -33.1462 -33.1453 -33.1350 -33.1345 -33.1336
   -33.1300 -33.1280 -33.1190 -33.1151 -33.1001 -33.0954 -33.0863 -33.0546
   -33.0543 -33.0465 -33.0462 -33.0424 -33.0417 -33.0342 -33.0256 -33.0068
   -33.0011 -32.9706 -32.9686 -32.9684 -32.9674 -32.9622 -32.9613 -32.9605
   -32.9600 -32.9515 -32.9513 -32.9410 -32.9381 -32.9262 -32.9243 -32.9125
   -32.9112 -12.7583 -12.7403 -12.7060 -12.6930 -11.9183 -11.8712 -11.8691
   -11.8390 -11.7737 -11.7714 -11.7437 -11.7321 -11.7238 -11.6843 -11.6821
   -11.6655 -11.6513 -11.6032 -11.5494 -11.5374 -11.4856 -11.4601 -11.4541
   -11.4314 -11.2029 -11.1962 -11.1640 -11.1625 -11.1510 -11.1293 -11.0950
   -11.0824 -11.0263 -11.0110 -11.0062 -10.9924 -10.9740 -10.9717 -10.9692
   -10.9664   0.1688   0.1735   0.2031   0.2514   0.3048   0.3850   0.4119
     0.4135   0.4665   0.5002   0.5298   0.5526   0.5947   0.5962   0.6264
     0.6282   0.7057   0.7719   0.7853   0.7975   0.9291   0.9471   0.9661
     0.9787   1.2060   1.2608   1.2703   1.2953   1.3054   1.3219   1.3488
     1.3553   1.3578   1.3634   1.4000   1.4113   1.4622   1.5084   1.5623
     1.5880   1.6156   1.6663   1.6985   1.7012   1.7807   1.8490   1.8559
     1.8831   2.2000   2.2250   2.2348   2.2426   2.2528   2.2716   2.2836
     2.3083   2.3171   2.3204   2.3251   2.3350   2.3596   2.4368   2.4368
     2.4469   2.6803   2.7600   2.7675   2.7696   2.8997   2.9415   2.9960
     2.9976   3.1201   3.1640   3.1753   3.1955   3.2087   3.2216   3.2259
     3.2412   3.2621   3.2686   3.2777   3.2950   3.4378   3.4756   3.4907
     3.5081   3.8066   3.8145   3.8536   3.8560   3.9031   3.9060   3.9080
     3.9150   3.9499   3.9687   3.9722   3.9945   4.1120   4.1414   4.1481
     4.1762   4.1806   4.1810   4.1843   4.1994   4.3809   4.3927   4.4784
     4.4814   4.4879   4.4977   4.5060   4.5260   4.5265   4.5452   4.5593
     4.5687   6.7252   6.8175   6.8882   6.8992   7.2630   7.3066   7.3308
     7.3469   7.7918   7.8557   7.8708   7.9170   7.9360   8.0450   8.1500
     8.1542   8.1656   8.1780   8.1883   8.2251   8.2502   8.3145   8.3350
     8.3407   8.3563   8.3571   8.3796   8.3836   8.4096   8.4211   8.4242
     8.4336   8.7318   8.7551   8.7876   8.8166   8.8883   8.9330   8.9423
     8.9914   9.0280   9.0342   9.1820   9.1939   9.3171   9.3757

          k =-0.5000-0.0000 0.0000 ( 19952 PWs)   bands (ev):

   -59.2894 -59.2864 -59.2843 -59.2814 -59.2050 -59.2035 -59.2033 -59.2018
   -59.1795 -59.1789 -59.1777 -59.1771 -59.1728 -59.1710 -59.1699 -59.1681
   -40.5848 -33.2223 -33.2188 -33.2177 -33.2146 -33.1969 -33.1941 -33.1939
   -33.1911 -33.1581 -33.1519 -33.1487 -33.1453 -33.1340 -33.1324 -33.1299
   -33.1280 -33.1248 -33.1214 -33.0970 -33.0921 -33.0873 -33.0794 -33.0730
   -33.0660 -33.0599 -33.0590 -33.0213 -33.0208 -33.0175 -33.0158 -33.0070
   -33.0014 -33.0003 -32.9963 -32.9638 -32.9630 -32.9615 -32.9601 -32.9509
   -32.9494 -32.9465 -32.9450 -32.9365 -32.9356 -32.9352 -32.9348 -32.9267
   -32.9260 -12.5413 -12.5389 -12.3811 -12.3743 -12.3632 -12.3574 -12.2298
   -12.2286 -11.7855 -11.7766 -11.6603 -11.6525 -11.6175 -11.6078 -11.6032
   -11.5979 -11.5555 -11.5535 -11.5436 -11.5424 -11.5118 -11.5048 -11.4708
   -11.4585 -11.2193 -11.2135 -11.1723 -11.1659 -11.1143 -11.1099 -11.1057
   -11.1051 -11.0737 -11.0666 -11.0234 -11.0197 -10.9242 -10.9228 -10.8830
   -10.8813  -0.0082   0.0137   0.0453   0.0581   0.0985   0.1092   0.1100
     0.1176   0.5298   0.5566   0.5571   0.5604   0.5731   0.5763   0.6529
     0.6572   0.6634   0.6698   0.7904   0.8361   0.8772   0.8988   0.9076
     0.9442   0.9731   0.9881   1.0953   1.1305   1.1614   1.1904   1.2092
     1.2199   1.3786   1.3934   1.5921   1.6076   1.6106   1.6268   1.6277
     1.6535   1.7090   1.7099   1.9453   1.9713   2.0120   2.1043   2.1067
     2.1215   2.1552   2.1834   2.1900   2.2036   2.2146   2.2174   2.2354
     2.2381   2.6157   2.6505   2.7568   2.7670   2.7758   2.8020   2.8181
     2.8297   2.8463   2.8464   2.8526   2.8603   2.8757   2.8770   2.9040
     2.9249   2.9291   2.9652   3.1572   3.2012   3.2157   3.2435   3.2508
     3.2510   3.2954   3.3371   3.3426   3.3494   3.4207   3.4311   3.4841
     3.5074   3.6883   3.6969   3.7104   3.7429   3.7776   3.7941   3.8255
     3.8359   3.8869   3.8938   3.9179   3.9525   3.9755   3.9926   3.9936
     4.0145   4.2528   4.2666   4.3913   4.3921   4.5127   4.5395   4.5627
     4.5700   4.6038   4.6048   4.6065   4.6103   4.8334   4.8372   4.9099
     4.9267   6.9645   6.9711   7.0434   7.0573   7.1661   7.1769   7.2204
     7.2286   7.8133   7.8326   7.8565   7.8601   7.9704   7.9892   7.9955
     8.0261   8.0414   8.0436   8.0769   8.0996   8.1334   8.1442   8.2602
     8.2842   8.2992   8.3331   8.3371   8.3477   8.3654   8.3755   8.4121
     8.4261   8.4877   8.5113   8.5448   8.5476   8.5601   8.5688   8.6286
     8.6320   8.6719   8.6726   8.6804   8.7009   8.7196   8.7224

          k =-0.5000-0.0000-0.3068 ( 19896 PWs)   bands (ev):

   -59.2893 -59.2863 -59.2843 -59.2814 -59.2050 -59.2035 -59.2033 -59.2018
   -59.1795 -59.1789 -59.1776 -59.1770 -59.1727 -59.1709 -59.1698 -59.1681
   -40.5848 -33.2213 -33.2189 -33.2168 -33.2146 -33.1962 -33.1940 -33.1932
   -33.1911 -33.1561 -33.1499 -33.1496 -33.1463 -33.1321 -33.1315 -33.1303
   -33.1295 -33.1227 -33.1177 -33.1025 -33.0927 -33.0834 -33.0799 -33.0759
   -33.0663 -33.0480 -33.0467 -33.0434 -33.0433 -33.0047 -33.0042 -33.0035
   -33.0030 -32.9987 -32.9972 -32.9651 -32.9618 -32.9570 -32.9548 -32.9491
   -32.9484 -32.9474 -32.9469 -32.9408 -32.9393 -32.9331 -32.9325 -32.9290
   -32.9285 -12.4820 -12.4792 -12.4595 -12.4549 -12.3117 -12.3050 -12.2945
   -12.2935 -11.6935 -11.6866 -11.6400 -11.6378 -11.6364 -11.6175 -11.5829
   -11.5792 -11.5746 -11.5727 -11.5505 -11.5497 -11.5397 -11.5374 -11.5069
   -11.4892 -11.2190 -11.2136 -11.1750 -11.1693 -11.1124 -11.1084 -11.0860
   -11.0807 -11.0755 -11.0729 -11.0342 -11.0296 -10.9130 -10.9109 -10.8911
   -10.8899  -0.0174   0.0083   0.0374   0.0516   0.0914   0.0962   0.1035
     0.1058   0.5180   0.5409   0.5490   0.5580   0.6202   0.6239   0.6547
     0.6850   0.6943   0.7098   0.7167   0.7252   0.8785   0.8879   0.9032
     0.9417   1.1049   1.1208   1.1455   1.1607   1.2232   1.2369   1.2660
     1.2728   1.3745   1.3880   1.3919   1.4264   1.6219   1.6275   1.6417
     1.6442   1.6456   1.6524   1.6660   1.6695   2.0448   2.1005   2.1141
     2.1248   2.1573   2.1894   2.2822   2.2832   2.4879   2.5447   2.5931
     2.5954   2.5985   2.6146   2.6195   2.6248   2.7104   2.7223   2.7698
     2.8072   2.8156   2.8335   2.8587   2.8685   2.8788   2.8874   2.9021
     2.9132   2.9179   2.9312   2.9505   2.9655   3.3271   3.3300   3.3420
     3.3519   3.3551   3.3692   3.3724   3.3751   3.3923   3.4070   3.4345
     3.4435   3.5117   3.5211   3.5416   3.5425   3.8833   3.9171   3.9229
     3.9297   3.9420   3.9482   3.9762   3.9797   3.9808   3.9823   4.0166
     4.0205   4.2411   4.2506   4.2900   4.2938   4.4336   4.4705   4.5087
     4.5111   4.6630   4.6725   4.7300   4.7357   4.8362   4.8419   4.8945
     4.9076   7.0679   7.0711   7.1410   7.1459   7.1509   7.1524   7.1745
     7.1779   7.8294   7.8566   7.8854   7.9239   7.9288   7.9548   7.9757
     7.9831   7.9867   8.0491   8.0704   8.0810   8.1221   8.1278   8.1940
     8.2057   8.3341   8.3562   8.3759   8.3868   8.3966   8.4053   8.4659
     8.4783   8.4807   8.4865   8.5159   8.5223   8.5387   8.5393   8.5795
     8.5806   8.6332   8.6491   8.6503   8.6616   8.7421   8.7458

          k =-0.5000-0.4334 0.0000 ( 19892 PWs)   bands (ev):

   -59.2893 -59.2863 -59.2843 -59.2814 -59.2050 -59.2035 -59.2033 -59.2018
   -59.1795 -59.1789 -59.1776 -59.1770 -59.1727 -59.1709 -59.1698 -59.1681
   -40.5848 -33.2210 -33.2172 -33.2162 -33.2129 -33.1974 -33.1947 -33.1944
   -33.1918 -33.1576 -33.1506 -33.1470 -33.1428 -33.1345 -33.1320 -33.1314
   -33.1287 -33.1251 -33.1216 -33.0966 -33.0917 -33.0870 -33.0789 -33.0724
   -33.0657 -33.0596 -33.0587 -33.0206 -33.0201 -33.0167 -33.0151 -33.0066
   -33.0011 -33.0000 -32.9961 -32.9637 -32.9627 -32.9613 -32.9601 -32.9508
   -32.9493 -32.9464 -32.9449 -32.9366 -32.9356 -32.9353 -32.9347 -32.9267
   -32.9260 -12.4782 -12.4645 -12.4380 -12.4181 -12.3351 -12.3135 -12.2873
   -12.2718 -11.7229 -11.7172 -11.6958 -11.6857 -11.6213 -11.6105 -11.6002
   -11.5907 -11.5669 -11.5607 -11.5527 -11.5452 -11.4999 -11.4929 -11.4856
   -11.4736 -11.1733 -11.1652 -11.1642 -11.1569 -11.1261 -11.1237 -11.1226
   -11.1205 -11.0042 -11.0027 -10.9994 -10.9959 -10.9813 -10.9803 -10.9777
   -10.9739  -0.0032   0.0184   0.0493   0.0620   0.0918   0.1023   0.1029
     0.1097   0.5706   0.5761   0.6372   0.6379   0.7250   0.7564   0.7654
     0.8085   0.8222   0.8226   0.8382   0.8523   1.0880   1.1026   1.1312
     1.1334   1.1861   1.2331   1.2452   1.2598   1.2807   1.3504   1.3576
     1.3834   1.4084   1.4313   1.4335   1.4470   1.4482   1.4815   1.5066
     1.5207   1.6353   1.6420   1.6487   1.6667   1.6986   1.7156   1.7225
     1.7387   2.1490   2.1621   2.1872   2.2155   2.2443   2.2623   2.2736
     2.2949   2.4741   2.5026   2.5072   2.5154   2.5196   2.5287   2.5415
     2.5478   2.8159   2.8209   2.8250   2.8743   2.8981   2.9036   2.9196
     2.9269   2.9397   2.9570   2.9666   2.9775   3.2030   3.2245   3.2667
     3.2707   3.2751   3.2768   3.2886   3.3154   3.5872   3.5973   3.6230
     3.6417   3.7684   3.7698   3.7830   3.8065   3.8543   3.8616   3.8855
     3.8986   4.1034   4.1538   4.1820   4.1909   4.2464   4.2517   4.3062
     4.3103   4.3202   4.3347   4.3376   4.3483   4.3866   4.3957   4.4336
     4.4433   4.4671   4.4723   4.4848   4.4893   4.5474   4.5547   4.5631
     4.5733   6.9829   6.9900   7.0369   7.0505   7.1679   7.1780   7.2185
     7.2266   7.8839   7.9139   7.9545   7.9716   8.0229   8.0356   8.0449
     8.0586   8.0786   8.0809   8.1171   8.1392   8.2092   8.2168   8.2360
     8.2458   8.2742   8.3003   8.3777   8.3812   8.3895   8.4000   8.4081
     8.4099   8.5278   8.5380   8.5409   8.5524   8.5820   8.5959   8.6204
     8.6334   8.6341   8.6512   8.6568   8.6613   8.6671   8.6731

          k =-0.5000-0.4334-0.3068 ( 19872 PWs)   bands (ev):

   -59.2893 -59.2864 -59.2842 -59.2814 -59.2049 -59.2034 -59.2033 -59.2018
   -59.1794 -59.1789 -59.1777 -59.1771 -59.1727 -59.1710 -59.1698 -59.1681
   -40.5848 -33.2204 -33.2175 -33.2158 -33.2131 -33.1970 -33.1949 -33.1940
   -33.1919 -33.1555 -33.1488 -33.1486 -33.1447 -33.1335 -33.1322 -33.1307
   -33.1297 -33.1239 -33.1186 -33.1020 -33.0923 -33.0831 -33.0795 -33.0755
   -33.0661 -33.0481 -33.0469 -33.0434 -33.0432 -33.0045 -33.0043 -33.0031
   -33.0025 -32.9984 -32.9974 -32.9646 -32.9614 -32.9570 -32.9547 -32.9489
   -32.9484 -32.9473 -32.9469 -32.9405 -32.9390 -32.9332 -32.9326 -32.9289
   -32.9284 -12.4239 -12.4098 -12.4043 -12.3852 -12.3807 -12.3618 -12.3597
   -12.3467 -11.6693 -11.6555 -11.6221 -11.6177 -11.6159 -11.6035 -11.5972
   -11.5930 -11.5723 -11.5631 -11.5509 -11.5503 -11.5489 -11.5412 -11.5391
   -11.5254 -11.1757 -11.1675 -11.1630 -11.1559 -11.1279 -11.1249 -11.1246
   -11.1213 -10.9947 -10.9933 -10.9897 -10.9869 -10.9859 -10.9851 -10.9831
   -10.9789  -0.0136   0.0116   0.0395   0.0543   0.0864   0.0907   0.0964
     0.1002   0.5922   0.6022   0.6594   0.6633   0.6739   0.6888   0.6993
     0.7004   0.9396   1.0105   1.0395   1.0496   1.0608   1.0722   1.0734
     1.0766   1.1650   1.2426   1.2474   1.2493   1.2604   1.2704   1.2729
     1.2760   1.4203   1.4456   1.5124   1.5181   1.5238   1.5359   1.5426
     1.5457   1.5572   1.5599   1.5749   1.5814   1.6451   1.6516   1.6558
     1.6666   2.1537   2.1649   2.2063   2.2139   2.2152   2.2171   2.2172
     2.2252   2.6204   2.6650   2.7047   2.7130   2.7146   2.7381   2.7491
     2.7516   2.7758   2.7905   2.8348   2.8467   2.8492   2.8535   2.8699
     2.8840   2.9164   2.9239   2.9717   2.9804   2.9889   2.9950   2.9990
     3.0043   3.3782   3.3880   3.3917   3.4222   3.4259   3.4396   3.4471
     3.4563   3.8415   3.8500   3.8683   3.8881   3.8903   3.8973   3.8990
     3.9019   4.1123   4.1621   4.1928   4.2008   4.2046   4.2096   4.2465
     4.2510   4.3315   4.3484   4.3895   4.4100   4.4170   4.4325   4.4333
     4.4386   4.4441   4.4588   4.5008   4.5261   4.5429   4.5448   4.5557
     4.5563   7.0644   7.0674   7.1398   7.1434   7.1501   7.1516   7.1713
     7.1748   7.8859   7.9137   7.9575   7.9720   8.0189   8.0223   8.0701
     8.0737   8.1104   8.1145   8.1461   8.1478   8.2079   8.2327   8.2394
     8.2489   8.2518   8.2705   8.3095   8.3283   8.3920   8.3961   8.4219
     8.4344   8.4420   8.4444   8.5694   8.5802   8.5834   8.5860   8.5901
     8.5952   8.6196   8.6252   8.6291   8.6324   8.6644   8.7015

     the Fermi energy is     6.0747 ev

!    total energy              =   -5161.22576412 Ry
     Harris-Foulkes estimate   =   -5161.22576429 Ry
     estimated scf accuracy    <       0.00000040 Ry

     total all-electron energy =    -36469.785505 Ry

     The total energy is the sum of the following terms:

     one-electron contribution =   -2150.08160613 Ry
     hartree contribution      =    1265.69679109 Ry
     xc contribution           =    -639.49208107 Ry
     ewald contribution        =   -2098.44413563 Ry
     one-center paw contrib.   =   -1538.15496858 Ry
     smearing contrib. (-TS)   =      -0.74976380 Ry

     convergence has been achieved in  14 iterations

     negative rho (up, down):  2.780E-03 0.000E+00

     Forces acting on atoms (cartesian axes, Ry/au):

     atom    1 type  1   force =     0.00014524   -0.00081461   -0.00634567
     atom    2 type  1   force =    -0.00273228    0.01439253   -0.00389321
[...]
     1.6733   1.7269   1.7304   1.9271   1.9938   2.0289   2.1039   2.1098
     2.1186   2.1610   2.1821   2.1899   2.1962   2.2027   2.2660   2.2716
     2.3168   2.6163   2.6536   2.6639   2.7045   2.7194   2.7534   2.7889
     2.8134   2.8351   2.8389   2.8625   2.8714   2.8738   2.8961   2.9311
     2.9315   2.9477   2.9742   3.0434   3.1553   3.1932   3.2032   3.2237
     3.2770   3.3174   3.3182   3.3220   3.3583   3.3638   3.3953   3.4693
     3.4913   3.6152   3.6623   3.6959   3.7142   3.7371   3.7471   3.8068
     3.8081   3.8674   3.9126   3.9333   3.9413   3.9469   3.9900   3.9996
     4.0303   4.2552   4.2580   4.3645   4.3696   4.4870   4.5218   4.5420
     4.5507   4.5679   4.5753   4.6003   4.6015   4.7682   4.7871   4.8879
     4.9066   6.9590   6.9724   7.0126   7.0565   7.1434   7.1855   7.2156
     7.2246   7.6625   7.8328   7.8605   7.8849   7.8980   7.9363   7.9793
     8.0268   8.0357   8.0540   8.0629   8.0742   8.1132   8.1772   8.2002
     8.2706   8.2716   8.2745   8.3165   8.3250   8.3521   8.3902   8.4150
     8.4272   8.4772   8.4936   8.5164   8.5463   8.5646   8.5810   8.5852
     8.6005   8.6329   8.6618   8.6704   8.6922   8.6946   8.7088

          k =-0.5000-0.0000-0.3068 ( 19896 PWs)   bands (ev):

   -59.2542 -59.2534 -59.2504 -59.2497 -59.2485 -59.2473 -59.2465 -59.2453
   -59.2301 -59.2284 -59.2137 -59.2121 -59.1876 -59.1858 -59.1812 -59.1792
   -39.2894 -33.2395 -33.2381 -33.2362 -33.2347 -33.2097 -33.2086 -33.2015
   -33.1992 -33.1985 -33.1959 -33.1743 -33.1732 -33.1487 -33.1480 -33.1365
   -33.1350 -33.0981 -33.0974 -33.0932 -33.0885 -33.0849 -33.0766 -33.0748
   -33.0600 -33.0517 -33.0499 -33.0436 -33.0431 -33.0415 -33.0357 -33.0352
   -33.0299 -33.0061 -33.0021 -32.9907 -32.9894 -32.9880 -32.9798 -32.9790
   -32.9745 -32.9742 -32.9721 -32.9669 -32.9522 -32.9511 -32.9503 -32.9456
   -32.9441 -12.4987 -12.4604 -12.4556 -12.4396 -12.3061 -12.2869 -12.2861
   -12.2763 -11.7255 -11.7066 -11.6503 -11.6229 -11.6074 -11.6033 -11.5963
   -11.5798 -11.5783 -11.5724 -11.5499 -11.5348 -11.5297 -11.5257 -11.5221
   -11.4907 -11.2486 -11.2184 -11.2132 -11.1965 -11.1521 -11.1250 -11.1142
   -11.1135 -11.0999 -11.0951 -11.0528 -11.0444 -10.9415 -10.9229 -10.9193
   -10.9020   0.0290   0.0310   0.0443   0.0555   0.1145   0.1338   0.1347
     0.1434   0.4833   0.5424   0.5514   0.5733   0.6248   0.6579   0.6819
     0.6894   0.7142   0.7198   0.7457   0.7491   0.8666   0.8700   0.8947
     0.9486   1.0837   1.1227   1.1397   1.1410   1.2159   1.2167   1.2692
     1.3150   1.3615   1.3741   1.3778   1.4234   1.5626   1.6195   1.6295
     1.6682   1.6713   1.7100   1.7136   1.7282   2.0180   2.1060   2.1569
     2.1640   2.1854   2.2012   2.2512   2.2856   2.4697   2.5445   2.5517
     2.5744   2.6050   2.6070   2.6250   2.6489   2.6899   2.7064   2.7160
     2.7810   2.8122   2.8207   2.8341   2.8415   2.8527   2.8784   2.9024
     2.9151   2.9531   2.9555   2.9661   3.0139   3.2677   3.2734   3.2914
     3.3017   3.3056   3.3075   3.3372   3.3485   3.3512   3.3979   3.4426
     3.4790   3.5124   3.5130   3.5159   3.5192   3.8333   3.8689   3.8871
     3.9050   3.9121   3.9264   3.9425   3.9651   3.9708   3.9892   4.0272
     4.0287   4.2488   4.2533   4.2574   4.2872   4.4109   4.4726   4.4858
     4.4883   4.6566   4.6603   4.6970   4.7009   4.7648   4.7983   4.8739
     4.8826   7.0556   7.0582   7.0726   7.1258   7.1358   7.1635   7.1831
     7.1895   7.6657   7.8617   7.8952   7.9046   7.9137   7.9426   7.9619
     7.9852   7.9886   8.0485   8.0669   8.0892   8.1067   8.1293   8.1440
     8.1782   8.3278   8.3330   8.3704   8.3751   8.3856   8.4129   8.4162
     8.4288   8.4667   8.4696   8.4877   8.5137   8.5185   8.5207   8.5581
     8.5655   8.6156   8.6352   8.6482   8.6610   8.7114   8.7313

          k =-0.5000-0.4334 0.0000 ( 19892 PWs)   bands (ev):

   -59.2542 -59.2534 -59.2504 -59.2496 -59.2485 -59.2473 -59.2464 -59.2453
   -59.2302 -59.2283 -59.2137 -59.2120 -59.1876 -59.1858 -59.1811 -59.1792
   -39.2894 -33.2388 -33.2377 -33.2352 -33.2338 -33.2102 -33.2073 -33.2027
   -33.2002 -33.1985 -33.1961 -33.1741 -33.1712 -33.1518 -33.1473 -33.1387
   -33.1335 -33.1050 -33.1039 -33.0997 -33.0931 -33.0672 -33.0619 -33.0588
   -33.0570 -33.0555 -33.0540 -33.0535 -33.0471 -33.0405 -33.0393 -33.0337
   -33.0264 -33.0110 -33.0051 -32.9946 -32.9889 -32.9866 -32.9856 -32.9814
   -32.9737 -32.9719 -32.9681 -32.9652 -32.9542 -32.9508 -32.9479 -32.9455
   -32.9420 -12.4961 -12.4377 -12.4185 -12.4161 -12.3361 -12.2892 -12.2774
   -12.2648 -11.7524 -11.7273 -11.7119 -11.6814 -11.6101 -11.6004 -11.6001
   -11.5909 -11.5430 -11.5365 -11.5360 -11.5296 -11.5285 -11.5170 -11.5027
   -11.4638 -11.2246 -11.2069 -11.1918 -11.1791 -11.1492 -11.1296 -11.1280
   -11.1236 -11.0743 -11.0589 -11.0301 -11.0181 -11.0128 -10.9992 -10.9598
   -10.9478   0.0337   0.0381   0.0508   0.0693   0.1168   0.1334   0.1442
     0.1533   0.5938   0.6272   0.6356   0.6397   0.6748   0.7925   0.7984
     0.8151   0.8203   0.8547   0.8563   0.8693   1.0377   1.0423   1.1274
     1.1728   1.1787   1.1822   1.2058   1.2827   1.3061   1.3448   1.3523
     1.3613   1.3911   1.4034   1.4278   1.4552   1.4849   1.5040   1.5157
     1.5304   1.5506   1.6173   1.6299   1.6392   1.6763   1.7114   1.7830
     1.8382   2.0651   2.0683   2.2281   2.2459   2.2488   2.3048   2.3077
     2.3282   2.4369   2.4390   2.4628   2.4945   2.5406   2.5427   2.6088
     2.6134   2.7120   2.8061   2.8552   2.8784   2.8871   2.9058   2.9344
     2.9369   2.9435   2.9475   2.9643   3.0254   3.0851   3.1920   3.2170
     3.2494   3.2745   3.2925   3.3490   3.3715   3.5618   3.5819   3.6028
     3.6138   3.6241   3.7555   3.7700   3.7971   3.8066   3.8478   3.9493
     3.9559   4.0152   4.0747   4.1962   4.2047   4.2203   4.2314   4.2491
     4.2558   4.2781   4.3040   4.3110   4.3236   4.3394   4.3859   4.4058
     4.4248   4.4455   4.4462   4.4872   4.5124   4.5339   4.5397   4.5949
     4.6190   6.9785   6.9930   7.0069   7.0475   7.1427   7.1844   7.2175
     7.2284   7.6765   7.9080   7.9139   7.9449   7.9763   8.0348   8.0349
     8.0435   8.0583   8.0821   8.1083   8.1264   8.1714   8.1990   8.2108
     8.2489   8.2651   8.3010   8.3221   8.3572   8.3661   8.3811   8.4049
     8.4061   8.4965   8.4997   8.5200   8.5382   8.5460   8.5784   8.5877
     8.6147   8.6314   8.6334   8.6609   8.6628   8.6682   8.7013

          k =-0.5000-0.4334-0.3068 ( 19872 PWs)   bands (ev):

   -59.2542 -59.2534 -59.2504 -59.2497 -59.2484 -59.2473 -59.2465 -59.2453
   -59.2301 -59.2284 -59.2136 -59.2121 -59.1876 -59.1858 -59.1811 -59.1792
   -39.2894 -33.2386 -33.2374 -33.2352 -33.2339 -33.2094 -33.2079 -33.2020
   -33.1998 -33.1988 -33.1961 -33.1734 -33.1718 -33.1497 -33.1489 -33.1366
   -33.1354 -33.0983 -33.0975 -33.0934 -33.0885 -33.0852 -33.0765 -33.0749
   -33.0597 -33.0518 -33.0497 -33.0433 -33.0425 -33.0413 -33.0352 -33.0349
   -33.0298 -33.0061 -33.0021 -32.9902 -32.9892 -32.9880 -32.9798 -32.9787
   -32.9741 -32.9740 -32.9722 -32.9668 -32.9522 -32.9509 -32.9501 -32.9457
   -32.9441 -12.4451 -12.4054 -12.3782 -12.3675 -12.3632 -12.3589 -12.3470
   -12.3395 -11.6954 -11.6593 -11.6216 -11.6057 -11.6056 -11.6028 -11.6014
   -11.5978 -11.5786 -11.5702 -11.5665 -11.5429 -11.5385 -11.5319 -11.5309
   -11.5234 -11.2274 -11.2089 -11.1901 -11.1818 -11.1496 -11.1340 -11.1264
   -11.1095 -11.0852 -11.0526 -11.0268 -11.0190 -11.0118 -10.9952 -10.9554
   -10.9495   0.0299   0.0320   0.0433   0.0616   0.1069   0.1301   0.1311
     0.1410   0.6196   0.6368   0.6690   0.6776   0.6923   0.7043   0.7145
     0.7371   0.8746   0.9789   0.9827   1.0247   1.0322   1.0631   1.1048
     1.1181   1.1591   1.2122   1.2321   1.2375   1.2455   1.2996   1.3073
     1.3566   1.3678   1.4037   1.4586   1.4605   1.4749   1.4899   1.5308
     1.5381   1.5923   1.5991   1.6291   1.6348   1.6357   1.6524   1.6805
     1.7268   2.0630   2.0944   2.1190   2.1574   2.2299   2.2580   2.2951
     2.3560   2.6237   2.6488   2.6677   2.6721   2.6882   2.7013   2.7400
     2.7661   2.7729   2.7730   2.7893   2.8642   2.8706   2.8774   2.8893
     2.8960   2.9027   2.9619   2.9625   2.9734   3.0081   3.0134   3.0336
     3.0448   3.3320   3.3562   3.3659   3.3800   3.3857   3.4677   3.4821
     3.4983   3.7026   3.7918   3.7980   3.8363   3.8884   3.8956   3.9069
     3.9347   3.9833   4.1372   4.1509   4.2099   4.2125   4.2233   4.2475
     4.2607   4.2975   4.3073   4.3443   4.3523   4.3581   4.3893   4.4182
     4.4217   4.4255   4.4337   4.4917   4.5139   4.5462   4.5777   4.5910
     4.5939   7.0536   7.0545   7.0736   7.1248   7.1349   7.1620   7.1857
     7.1866   7.6793   7.9092   7.9285   7.9666   8.0110   8.0216   8.0335
     8.0426   8.0803   8.0859   8.1079   8.1778   8.2043   8.2259   8.2367
     8.2409   8.2536   8.2659   8.2852   8.3159   8.3243   8.4007   8.4104
     8.4206   8.4278   8.4508   8.5028   8.5098   8.5288   8.5614   8.5845
     8.5864   8.6018   8.6068   8.6460   8.6686   8.6700   8.6817

     the Fermi energy is     6.0558 ev

!    total energy              =   -5161.26291688 Ry
     Harris-Foulkes estimate   =   -5161.26291689 Ry
     estimated scf accuracy    <          7.1E-09 Ry

     total all-electron energy =    -36469.822658 Ry

     The total energy is the sum of the following terms:

     one-electron contribution =   -2139.02722937 Ry
     hartree contribution      =    1260.08017620 Ry
     xc contribution           =    -639.43574470 Ry
     ewald contribution        =   -2103.98194935 Ry
     one-center paw contrib.   =   -1538.14977841 Ry
     smearing contrib. (-TS)   =      -0.74839125 Ry

     convergence has been achieved in  13 iterations

     negative rho (up, down):  1.383E-03 0.000E+00

     Forces acting on atoms (cartesian axes, Ry/au):

     atom    1 type  1   force =     0.00002677    0.00043080    0.00078352
     atom    2 type  1   force =     0.00056637   -0.00101417    0.00033468
     atom    3 type  1   force =     0.00052517   -0.00122311   -0.00031373
     atom    4 type  1   force =     0.00002837    0.00026847   -0.00079221
     atom    5 type  2   force =     0.00001692    0.00135437   -0.00002082
     atom    6 type  2   force =    -0.00002680    0.00019905    0.00169152
     atom    7 type  2   force =     0.00037857    0.00004439    0.00030297
     atom    8 type  2   force =     0.00003654   -0.00012709    0.00084086
     atom    9 type  2   force =     0.00008662   -0.00043162   -0.00011921
     atom   10 type  2   force =    -0.00013710    0.00025896   -0.00000557
     atom   11 type  2   force =     0.00022368   -0.00024413    0.00001952
     atom   12 type  2   force =     0.00003633    0.00001903   -0.00084658
     atom   13 type  2   force =     0.00037537    0.00008770   -0.00033268
     atom   14 type  2   force =    -0.00002008    0.00031950   -0.00169454
     atom   15 type  1   force =    -0.00006364    0.00070318    0.00037282
     atom   16 type  1   force =     0.00034699   -0.00004393    0.00025403
     atom   17 type  1   force =     0.00028039    0.00040282   -0.00025966
     atom   18 type  1   force =    -0.00006525    0.00090300   -0.00035883
     atom   19 type  2   force =    -0.00023134    0.00038744   -0.00000175
     atom   20 type  2   force =    -0.00005783    0.00093427   -0.00035689
     atom   21 type  2   force =     0.00015688    0.00017433   -0.00038361
     atom   22 type  2   force =     0.00000726    0.00010643   -0.00051761
     atom   23 type  2   force =    -0.00046646   -0.00026835    0.00060190
     atom   24 type  2   force =     0.00065005    0.00082333    0.00002028
     atom   25 type  2   force =    -0.00045535   -0.00063370   -0.00059897
     atom   26 type  2   force =     0.00000831    0.00004216    0.00049554
     atom   27 type  2   force =     0.00015844    0.00014581    0.00036310
     atom   28 type  2   force =    -0.00005449    0.00075706    0.00034870
     atom   29 type  1   force =     0.00004635   -0.00081414   -0.00039367
     atom   30 type  1   force =    -0.00046977   -0.00090378    0.00033139
     atom   31 type  1   force =    -0.00043045   -0.00109884   -0.00031276
     atom   32 type  1   force =     0.00004749   -0.00093963    0.00039997
     atom   33 type  2   force =     0.00003923    0.00118210    0.00000490
     atom   34 type  2   force =    -0.00002712   -0.00104513   -0.00079839
     atom   35 type  2   force =    -0.00030750    0.00002157    0.00029418
     atom   36 type  2   force =     0.00005215    0.00015427   -0.00033422
     atom   37 type  2   force =    -0.00006091   -0.00035097   -0.00026045
     atom   38 type  2   force =     0.00017728    0.00045387   -0.00000530
     atom   39 type  2   force =    -0.00019461   -0.00017489    0.00016133
     atom   40 type  2   force =     0.00005392    0.00015512    0.00034645
     atom   41 type  2   force =    -0.00030131    0.00005905   -0.00032282
     atom   42 type  2   force =    -0.00002177   -0.00092820    0.00075790
     atom   43 type  1   force =    -0.00004157    0.00066188   -0.00000599
     atom   44 type  1   force =    -0.00034885   -0.00007155    0.00036032
     atom   45 type  1   force =    -0.00028337    0.00034742   -0.00036618
     atom   46 type  1   force =    -0.00004010    0.00077605    0.00003302
     atom   47 type  2   force =    -0.00006822   -0.00170556    0.00000485
     atom   48 type  2   force =    -0.00010963    0.00092706   -0.00014840
     atom   49 type  2   force =    -0.00021279    0.00012013   -0.00025002
     atom   50 type  2   force =     0.00001374   -0.00058367    0.00003035
     atom   51 type  2   force =     0.00040170   -0.00015584    0.00082603
     atom   52 type  2   force =    -0.00042279    0.00035737    0.00001662
     atom   53 type  2   force =     0.00039265   -0.00050642   -0.00082699
     atom   54 type  2   force =     0.00001402   -0.00060723   -0.00005768
     atom   55 type  2   force =    -0.00021398    0.00009314    0.00023019
     atom   56 type  2   force =    -0.00010425    0.00084142    0.00012599
     atom   57 type  3   force =     0.00008976   -0.00064059    0.00033264

     Total force =     0.006533     Total SCF correction =     0.000279

     bfgs converged in  29 scf cycles and  28 bfgs steps
     (criteria: energy <  1.0E-04 Ry, force <  1.0E-02 Ry/Bohr)

     End of BFGS Geometry Optimization

     Final energy   =   -5161.2629168827 Ry
Begin final coordinates

ATOMIC_POSITIONS (angstrom)
V        1.108474058   1.617790177   1.731015040
V        2.925498349   2.435783763   4.123856406
V        2.924873592   2.436883936   7.547190141
V        1.108216569   1.616317769   9.938837306
O        1.107444239   2.033697311   0.000127687
O        1.109488366  -0.005189556   1.686815988
O        2.911469695   2.039832473   2.113076971
O        1.108322625   2.215905088   3.718030862
O        3.152882213   4.048979095   4.302870554
O        2.852554138   1.921884166   5.835475612
O        3.146654247   4.050103591   7.368997421
O        1.108088974   2.210756158   7.952467902
O        2.911099002   2.038981850   9.557581684
O        1.109007731  -0.006614336   9.983609764
V        1.111161041   5.672731874   1.733965926
V        2.864997861   6.655627507   4.081754647
V        2.865999960   6.652661222   7.586731719
V        1.111021992   5.672115081   9.935076380
O        1.114617037   6.096573411  -0.000173291
O        1.110967262   4.054421006   1.705746771
O        2.881923493   6.145421349   2.124223862
O        1.109691083   6.033578894   3.823731077
O        2.726830352   8.265816574   4.067762763
O        3.074538020   6.251197583   5.833781037
O        2.729319585   8.263204273   7.601805236
O        1.109533839   6.033710779   7.846183208
O        2.881864627   6.144488007   9.545788420
O        1.110936436   4.053921171   9.963682733
V        4.689426035   1.567822876   1.721425514
V        6.452154428   2.433468667   4.125427825
V        6.452274895   2.434663609   7.545556008
V        4.689254250   1.567824965   9.948869583
O        4.688391640   2.053718992   0.000298340
O        4.690507555  -0.051374318   1.638400104
O        6.466856907   2.041269415   2.113243139
O        4.688754842   1.868073619   3.765958731
O        6.225003680   4.046270745   4.310905855
O        6.524987364   1.913138887   5.835471341
O        6.230452789   4.047446528   7.360609479
O        4.688565437   1.870904920   7.904657362
O        6.466812966   2.040822276   9.557416980
O        4.690453371  -0.051393328  10.031818894
V        4.691450666   5.714208288   1.748241734
V        6.516607002   6.657820735   4.080011684
V        6.515245883   6.654846659   7.588483205
V        4.691244685   5.713071952   9.921459175
O        4.690130412   6.079921198   0.000011564
O        4.691511912   4.093788998   1.780600231
O        6.500955186   6.144895796   2.121741641
O        4.691483020   6.290837491   3.711934512
O        6.654438180   8.267874638   4.059137821
O        6.307636768   6.261815090   5.833779569
O        6.651487471   8.265243078   7.610544147
O        4.691306707   6.289290823   7.959064629
O        6.500676752   6.143609430   9.548222774
O        4.691072239   4.092676804   9.890030688
Li       4.692917449   4.820499937   5.811554514
End final coordinates



     Writing output data file li_v16o40.save/

     init_run     :     19.11s CPU     19.34s WALL (       1 calls)
     electrons    :  78737.62s CPU  79660.55s WALL (      29 calls)
     update_pot   :     90.52s CPU     93.66s WALL (      28 calls)
     forces       :   1433.62s CPU   1451.68s WALL (      29 calls)

     Called by init_run:
     wfcinit      :     17.05s CPU     17.11s WALL (       1 calls)
     potinit      :      0.70s CPU      0.76s WALL (       1 calls)
     hinit0       :      0.62s CPU      0.64s WALL (       1 calls)

     Called by electrons:
     c_bands      :  71132.38s CPU  71855.34s WALL (     496 calls)
     sum_band     :   6244.76s CPU   6347.42s WALL (     496 calls)
     v_of_rho     :    359.24s CPU    398.32s WALL (     519 calls)
     newd         :    678.09s CPU    733.89s WALL (     519 calls)
     PAW_pot      :    409.30s CPU    413.90s WALL (     547 calls)
     mix_rho      :     11.04s CPU     11.76s WALL (     496 calls)

     Called by c_bands:
     init_us_2    :     76.26s CPU     76.99s WALL (    8400 calls)
     cegterg      :  70876.17s CPU  71593.16s WALL (    3968 calls)

     Called by sum_band:
     sum_band:bec :     36.65s CPU     36.86s WALL (    4192 calls)
     addusdens    :    541.49s CPU    596.82s WALL (     496 calls)

     Called by *egterg:
     h_psi        :  25489.68s CPU  25710.69s WALL (   29504 calls)
     s_psi        :   9418.70s CPU   9453.38s WALL (   29504 calls)
     g_psi        :     11.89s CPU     12.02s WALL (   25528 calls)
     cdiaghg      :  18868.03s CPU  19191.77s WALL (   29224 calls)

     Called by h_psi:
     h_psi:pot    :  25464.50s CPU  25661.41s WALL (   29504 calls)
     h_psi:calbec :  11670.88s CPU  11756.22s WALL (   29504 calls)
     vloc_psi     :   3359.80s CPU   3427.10s WALL (   29504 calls)
     add_vuspsi   :  10432.92s CPU  10477.72s WALL (   29504 calls)

     General routines
     calbec       :  17937.18s CPU  18067.61s WALL (   34624 calls)
     fft          :    379.07s CPU    406.38s WALL (   34442 calls)
     ffts         :      4.36s CPU      4.77s WALL (    1015 calls)
     fftw         :   3835.68s CPU   3908.52s WALL ( 6364248 calls)
     interpolate  :      4.51s CPU      5.12s WALL (     519 calls)

     Parallel routines
     fft_scatt_xy :    193.09s CPU    197.23s WALL ( 6399705 calls)
     fft_scatt_yz :   3251.74s CPU   3338.89s WALL ( 6399705 calls)

     PWSCF        :     22h24m CPU     22h39m WALL


   This run was terminated on:  23:45: 2  12Mar2024            

=------------------------------------------------------------------------------=
   JOB DONE.
=------------------------------------------------------------------------------=
