
     Program PWSCF v.6.4.1 starts on 17May2024 at 22:51:29 

     This program is part of the open-source Quantum ESPRESSO suite
     for quantum simulation of materials; please cite
         "P. Giannozzi et al., J. Phys.:Condens. Matter 21 395502 (2009);
         "P. Giannozzi et al., J. Phys.:Condens. Matter 29 465901 (2017);
          URL http://www.quantum-espresso.org", 
     in publications or presentations arising from this work. More details at
     http://www.quantum-espresso.org/quote

     Parallel version (MPI), running on    32 processors

     MPI processes distributed on     1 nodes
     R & G space division:  proc/nbgrp/npool/nimage =      32
     Reading input from v2o5.vc-rlx.in

     Current dimensions of program PWSCF are:
     Max number of different atomic species (ntypx) = 10
     Max number of k-points (npk) =  40000
     Max angular momentum in pseudopotentials (lmaxx) =  3

     -------------------------------------------------
     Parameters for Dispersion (Grimme-D2) Correction:
     -------------------------------------------------
       atom      VdW radius       C_6     

        V          2.952        374.666
        O          2.536         24.284

     Subspace diagonalization in iterative solution of the eigenvalue problem:
     one sub-group per band group will be used
     ELPA distributed-memory algorithm (size of sub-group:  4*  4 procs)


     Parallelization info
     --------------------
     sticks:   dense  smooth     PW     G-vecs:    dense   smooth      PW
     Min          67      67     18                 6841     6841     950
     Max          68      68     19                 6850     6850     957
     Sum        2165    2165    583               219081   219081   30533



     bravais-lattice index     =            8
     lattice parameter (alat)  =       6.6827  a.u.
     unit-cell volume          =    1233.5773 (a.u.)^3
     number of atoms/cell      =           14
     number of atomic types    =            2
     number of electrons       =       112.00
     number of Kohn-Sham states=           56
     kinetic-energy cutoff     =     120.0000  Ry
     charge density cutoff     =     480.0000  Ry
     convergence threshold     =      1.0E-10
     mixing beta               =       0.7000
     number of iterations used =            8  plain     mixing
     Exchange-correlation      = PBE ( 1  4  3  4 0 0)
     nstep                     =          500


     celldm(1)=   6.682682  celldm(2)=   1.263659  celldm(3)=   3.271025
     celldm(4)=   0.000000  celldm(5)=   0.000000  celldm(6)=   0.000000

     crystal axes: (cart. coord. in units of alat)
               a(1) = (   1.000000   0.000000   0.000000 )  
               a(2) = (   0.000000   1.263659   0.000000 )  
               a(3) = (   0.000000   0.000000   3.271025 )  

     reciprocal axes: (cart. coord. in units 2 pi/alat)
               b(1) = (  1.000000  0.000000  0.000000 )  
               b(2) = (  0.000000  0.791352  0.000000 )  
               b(3) = (  0.000000  0.000000  0.305715 )  


     PseudoPot. # 1 for V  read from file:
     /home/mpicuntureo/pseudos/v.nc.upf
     MD5 check sum: 40fb93c06b4f9d8c28c5ccd071294a04
     Pseudo is Norm-conserving + core correction, Zval = 13.0
     Generated using ONCVPSP code by D. R. Hamann
     Using radial grid of 1536 points,  6 beta functions with: 
                l(1) =   0
                l(2) =   0
                l(3) =   1
                l(4) =   1
                l(5) =   2
                l(6) =   2

     PseudoPot. # 2 for O  read from file:
     /home/mpicuntureo/pseudos/o.nc.upf
     MD5 check sum: 3e3f909f7470e8921608ab6b1f57bbae
     Pseudo is Norm-conserving + core correction, Zval =  6.0
     Generated using ONCVPSP code by D. R. Hamann
     Using radial grid of  936 points,  5 beta functions with: 
                l(1) =   0
                l(2) =   0
                l(3) =   1
                l(4) =   1
                l(5) =   2

     atomic species   valence    mass     pseudopotential
        V             13.00    50.94150     V ( 1.00)
        O              6.00    15.99940     O ( 1.00)

      8 Sym. Ops., with inversion, found ( 4 have fractional translation)



   Cartesian axes

     site n.     atom                  positions (alat units)
         1           V   tau(   1) = (   0.0000000   0.4838420   2.1198804  )
         2           V   tau(   2) = (   0.5000000   0.7798175   2.7866567  )
         3           V   tau(   3) = (   0.5000000   0.7798175   0.4843680  )
         4           V   tau(   4) = (   0.0000000   0.4838420   1.1511443  )
         5           O   tau(   5) = (   0.5000000   0.6221939   2.2285187  )
         6           O   tau(   6) = (   0.0000000   0.6414656   2.6780184  )
         7           O   tau(   7) = (   0.0000000   0.6414656   0.5930063  )
         8           O   tau(   8) = (   0.5000000   0.6221939   1.0425060  )
         9           O   tau(   9) = (   0.0000000   0.0364742   1.1584929  )
        10           O   tau(  10) = (   0.5000000   1.2271853   0.4770194  )
        11           O   tau(  11) = (   0.5000000   1.2271853   2.7940053  )
        12           O   tau(  12) = (   0.5000000   0.6433842   0.0000000  )
        13           O   tau(  13) = (   0.0000000   0.6202753   1.6355124  )
        14           O   tau(  14) = (   0.0000000   0.0364742   2.1125318  )

     number of k points=     4
                       cart. coord. in units 2pi/alat
        k(    1) = (   0.0000000   0.0000000   0.0000000), wk =   0.2222222
        k(    2) = (   0.0000000   0.2637841   0.0000000), wk =   0.4444444
        k(    3) = (   0.3333333   0.0000000   0.0000000), wk =   0.4444444
        k(    4) = (   0.3333333   0.2637841   0.0000000), wk =   0.8888889

     Dense  grid:   219081 G-vectors     FFT dimensions: (  48,  60, 160)

     Estimated max dynamical RAM per process >      23.97 MB

     Estimated total dynamical RAM >     767.10 MB

     Initial potential from superposition of free atoms

     starting charge  111.99579, renormalised to  112.00000
     Starting wfcs are   80 randomized atomic wfcs

     total cpu time spent up to now is        1.9 secs

     Self-consistent Calculation

     iteration #  1     ecut=   120.00 Ry     beta= 0.70
     Davidson diagonalization with overlap
     ethr =  1.00E-02,  avg # of iterations =  2.0

     total cpu time spent up to now is        3.4 secs

     total energy              =    -917.44724011 Ry
     Harris-Foulkes estimate   =    -923.62555545 Ry
     estimated scf accuracy    <       7.75474144 Ry

     iteration #  2     ecut=   120.00 Ry     beta= 0.70
     Davidson diagonalization with overlap
     ethr =  6.92E-03,  avg # of iterations =  6.2

     total cpu time spent up to now is        6.7 secs

     total energy              =    -908.10931283 Ry
     Harris-Foulkes estimate   =    -938.54177792 Ry
     estimated scf accuracy    <     136.23911748 Ry

     iteration #  3     ecut=   120.00 Ry     beta= 0.70
     Davidson diagonalization with overlap
     ethr =  6.92E-03,  avg # of iterations =  5.8

     total cpu time spent up to now is        9.9 secs

     total energy              =    -921.91172087 Ry
     Harris-Foulkes estimate   =    -922.67689365 Ry
     estimated scf accuracy    <       2.55863082 Ry

     iteration #  4     ecut=   120.00 Ry     beta= 0.70
     Davidson diagonalization with overlap
     ethr =  2.28E-03,  avg # of iterations =  3.8

     total cpu time spent up to now is       11.6 secs

     total energy              =    -922.06626213 Ry
     Harris-Foulkes estimate   =    -922.19768281 Ry
     estimated scf accuracy    <       0.84080217 Ry

     iteration #  5     ecut=   120.00 Ry     beta= 0.70
     Davidson diagonalization with overlap
     ethr =  7.51E-04,  avg # of iterations =  4.0

     total cpu time spent up to now is       13.1 secs

     total energy              =    -922.00596207 Ry
     Harris-Foulkes estimate   =    -922.12957998 Ry
     estimated scf accuracy    <       0.42188601 Ry

     iteration #  6     ecut=   120.00 Ry     beta= 0.70
     Davidson diagonalization with overlap
     ethr =  3.77E-04,  avg # of iterations =  4.0

     total cpu time spent up to now is       15.3 secs

     total energy              =    -922.13257488 Ry
     Harris-Foulkes estimate   =    -922.14880165 Ry
     estimated scf accuracy    <       0.18030322 Ry

     iteration #  7     ecut=   120.00 Ry     beta= 0.70
     Davidson diagonalization with overlap
     ethr =  1.61E-04,  avg # of iterations =  2.0

     total cpu time spent up to now is       16.6 secs

     total energy              =    -922.10655301 Ry
     Harris-Foulkes estimate   =    -922.13494241 Ry
     estimated scf accuracy    <       0.13772874 Ry

     iteration #  8     ecut=   120.00 Ry     beta= 0.70
     Davidson diagonalization with overlap
     ethr =  1.23E-04,  avg # of iterations =  3.8

     total cpu time spent up to now is       18.4 secs

     total energy              =    -922.12518285 Ry
     Harris-Foulkes estimate   =    -922.12618491 Ry
     estimated scf accuracy    <       0.00234633 Ry

     iteration #  9     ecut=   120.00 Ry     beta= 0.70
     Davidson diagonalization with overlap
     ethr =  2.09E-06,  avg # of iterations =  5.8

     total cpu time spent up to now is       21.2 secs

     total energy              =    -922.12718296 Ry
     Harris-Foulkes estimate   =    -922.12748819 Ry
     estimated scf accuracy    <       0.00139106 Ry

     iteration # 10     ecut=   120.00 Ry     beta= 0.70
     Davidson diagonalization with overlap
     ethr =  1.24E-06,  avg # of iterations =  4.0

     total cpu time spent up to now is       22.8 secs

     total energy              =    -922.12727337 Ry
     Harris-Foulkes estimate   =    -922.12735876 Ry
     estimated scf accuracy    <       0.00043276 Ry

     iteration # 11     ecut=   120.00 Ry     beta= 0.70
     Davidson diagonalization with overlap
     ethr =  3.86E-07,  avg # of iterations =  3.0

     total cpu time spent up to now is       24.1 secs

     total energy              =    -922.12724580 Ry
     Harris-Foulkes estimate   =    -922.12729415 Ry
     estimated scf accuracy    <       0.00018732 Ry

     iteration # 12     ecut=   120.00 Ry     beta= 0.70
     Davidson diagonalization with overlap
     ethr =  1.67E-07,  avg # of iterations =  4.0

     total cpu time spent up to now is       26.3 secs

     total energy              =    -922.12729983 Ry
     Harris-Foulkes estimate   =    -922.12731016 Ry
     estimated scf accuracy    <       0.00008278 Ry

     iteration # 13     ecut=   120.00 Ry     beta= 0.70
     Davidson diagonalization with overlap
     ethr =  7.39E-08,  avg # of iterations =  1.0

     total cpu time spent up to now is       27.7 secs

     total energy              =    -922.12729436 Ry
     Harris-Foulkes estimate   =    -922.12730108 Ry
     estimated scf accuracy    <       0.00005436 Ry

     iteration # 14     ecut=   120.00 Ry     beta= 0.70
     Davidson diagonalization with overlap
     ethr =  4.85E-08,  avg # of iterations =  2.5

     total cpu time spent up to now is       28.9 secs

     total energy              =    -922.12729322 Ry
     Harris-Foulkes estimate   =    -922.12729665 Ry
     estimated scf accuracy    <       0.00002294 Ry

     iteration # 15     ecut=   120.00 Ry     beta= 0.70
     Davidson diagonalization with overlap
     ethr =  2.05E-08,  avg # of iterations =  4.0

     total cpu time spent up to now is       31.0 secs

     total energy              =    -922.12730089 Ry
     Harris-Foulkes estimate   =    -922.12730106 Ry
     estimated scf accuracy    <       0.00000637 Ry

     iteration # 16     ecut=   120.00 Ry     beta= 0.70
     Davidson diagonalization with overlap
     ethr =  5.69E-09,  avg # of iterations =  2.8

     total cpu time spent up to now is       32.4 secs

     total energy              =    -922.12729890 Ry
     Harris-Foulkes estimate   =    -922.12730097 Ry
     estimated scf accuracy    <       0.00000625 Ry

     iteration # 17     ecut=   120.00 Ry     beta= 0.70
     Davidson diagonalization with overlap
     ethr =  5.58E-09,  avg # of iterations =  4.0

     total cpu time spent up to now is       34.5 secs

     total energy              =    -922.12730008 Ry
     Harris-Foulkes estimate   =    -922.12730053 Ry
     estimated scf accuracy    <       0.00000197 Ry

     iteration # 18     ecut=   120.00 Ry     beta= 0.70
     Davidson diagonalization with overlap
     ethr =  1.76E-09,  avg # of iterations =  4.0

     total cpu time spent up to now is       36.0 secs

     total energy              =    -922.12730011 Ry
     Harris-Foulkes estimate   =    -922.12730021 Ry
     estimated scf accuracy    <       0.00000032 Ry

     iteration # 19     ecut=   120.00 Ry     beta= 0.70
     Davidson diagonalization with overlap
     ethr =  2.88E-10,  avg # of iterations =  4.2

     total cpu time spent up to now is       38.2 secs

     total energy              =    -922.12730030 Ry
     Harris-Foulkes estimate   =    -922.12730037 Ry
     estimated scf accuracy    <       0.00000071 Ry

     iteration # 20     ecut=   120.00 Ry     beta= 0.70
     Davidson diagonalization with overlap
     ethr =  2.88E-10,  avg # of iterations =  1.0

     total cpu time spent up to now is       39.4 secs

     total energy              =    -922.12730024 Ry
     Harris-Foulkes estimate   =    -922.12730030 Ry
     estimated scf accuracy    <       0.00000046 Ry

     iteration # 21     ecut=   120.00 Ry     beta= 0.70
     Davidson diagonalization with overlap
     ethr =  2.88E-10,  avg # of iterations =  3.0

     total cpu time spent up to now is       40.6 secs

     total energy              =    -922.12730027 Ry
     Harris-Foulkes estimate   =    -922.12730028 Ry
     estimated scf accuracy    <       0.00000006 Ry

     iteration # 22     ecut=   120.00 Ry     beta= 0.70
     Davidson diagonalization with overlap
     ethr =  4.96E-11,  avg # of iterations =  4.8

     total cpu time spent up to now is       42.7 secs

     total energy              =    -922.12730029 Ry
     Harris-Foulkes estimate   =    -922.12730029 Ry
     estimated scf accuracy    <          2.5E-09 Ry

     iteration # 23     ecut=   120.00 Ry     beta= 0.70
     Davidson diagonalization with overlap
     ethr =  2.27E-12,  avg # of iterations =  4.5

     total cpu time spent up to now is       44.5 secs

     total energy              =    -922.12730029 Ry
     Harris-Foulkes estimate   =    -922.12730029 Ry
     estimated scf accuracy    <          2.6E-09 Ry

     iteration # 24     ecut=   120.00 Ry     beta= 0.70
     Davidson diagonalization with overlap
     ethr =  2.27E-12,  avg # of iterations =  3.2

     total cpu time spent up to now is       46.1 secs

     total energy              =    -922.12730029 Ry
     Harris-Foulkes estimate   =    -922.12730029 Ry
     estimated scf accuracy    <          3.3E-10 Ry

     iteration # 25     ecut=   120.00 Ry     beta= 0.70
     Davidson diagonalization with overlap
     ethr =  2.92E-13,  avg # of iterations =  4.8

     total cpu time spent up to now is       48.2 secs

     total energy              =    -922.12730029 Ry
     Harris-Foulkes estimate   =    -922.12730029 Ry
     estimated scf accuracy    <          6.0E-10 Ry

     iteration # 26     ecut=   120.00 Ry     beta= 0.70
     Davidson diagonalization with overlap
     ethr =  2.92E-13,  avg # of iterations =  1.2

     total cpu time spent up to now is       49.3 secs

     total energy              =    -922.12730029 Ry
     Harris-Foulkes estimate   =    -922.12730029 Ry
     estimated scf accuracy    <          3.9E-10 Ry

     iteration # 27     ecut=   120.00 Ry     beta= 0.70
     Davidson diagonalization with overlap
     ethr =  2.92E-13,  avg # of iterations =  3.0

     total cpu time spent up to now is       50.7 secs

     total energy              =    -922.12730029 Ry
     Harris-Foulkes estimate   =    -922.12730029 Ry
     estimated scf accuracy    <          1.6E-10 Ry

     iteration # 28     ecut=   120.00 Ry     beta= 0.70
     Davidson diagonalization with overlap
     ethr =  1.44E-13,  avg # of iterations =  4.0

     total cpu time spent up to now is       52.5 secs

     End of self-consistent calculation

          k = 0.0000 0.0000 0.0000 ( 27379 PWs)   bands (ev):

   -59.9655 -59.9636 -59.9547 -59.9527 -34.0020 -33.9996 -33.9928 -33.9872
   -33.9076 -33.8543 -33.8277 -33.7981 -33.7956 -33.7769 -33.7638 -33.7613
   -13.5388 -13.4153 -12.4491 -12.3223 -12.2371 -12.1952 -11.8134 -11.8090
   -11.6506 -11.6303  -0.4144  -0.4013  -0.3566  -0.2454  -0.0685   0.3669
     1.0617   1.1092   1.3411   1.3453   1.5786   1.6166   1.8693   1.8706
     1.9086   2.0056   2.0830   2.0926   2.1928   2.2822   2.3780   2.5119
     2.5198   2.9114   3.0332   3.0602   3.1098   3.3296   3.3606   3.4254

          k = 0.0000 0.2638 0.0000 ( 27396 PWs)   bands (ev):

   -59.9655 -59.9635 -59.9547 -59.9527 -34.0036 -34.0012 -33.9960 -33.9904
   -33.9072 -33.8539 -33.8277 -33.7979 -33.7955 -33.7769 -33.7638 -33.7613
   -13.4660 -13.3530 -12.3855 -12.2950 -12.2339 -12.1766 -11.8218 -11.7992
   -11.6218 -11.5969  -0.4603  -0.4469  -0.3936  -0.2894  -0.2365   0.0399
     0.2965   0.4762   0.5192   0.6668   1.1631   1.3052   1.3625   1.8081
     1.8627   2.0705   2.2210   2.3178   2.4818   2.5483   2.6888   2.7953
     3.0419   3.0492   3.0943   3.2112   3.2295   3.5094   3.5826   3.7239

          k = 0.3333 0.0000 0.0000 ( 27345 PWs)   bands (ev):

   -59.9610 -59.9591 -59.9556 -59.9537 -33.9960 -33.9936 -33.9904 -33.9861
   -33.9040 -33.8767 -33.8637 -33.8542 -33.8078 -33.8024 -33.7867 -33.7759
   -12.9608 -12.8194 -12.3460 -12.1812 -12.1711 -12.1457 -11.7521 -11.7418
   -11.7096 -11.6672  -0.9215  -0.8449  -0.0949  -0.0903   0.0336   0.3640
     0.4918   0.8759   0.8814   1.1805   1.2157   1.2527   1.6202   1.7572
     1.7673   1.9322   2.0104   2.0277   2.1116   2.1756   2.2688   2.3177
     2.3507   2.7521   3.0389   3.1221   3.2064   3.3951   3.5731   3.6404

          k = 0.3333 0.2638 0.0000 ( 27374 PWs)   bands (ev):

   -59.9610 -59.9590 -59.9556 -59.9536 -33.9980 -33.9956 -33.9931 -33.9888
   -33.9036 -33.8764 -33.8633 -33.8539 -33.8078 -33.8023 -33.7867 -33.7760
   -12.8975 -12.7722 -12.3048 -12.1780 -12.1548 -12.1298 -11.7388 -11.7194
   -11.6409 -11.6232  -0.9238  -0.8452  -0.1652  -0.1566  -0.0886   0.1627
     0.2649   0.4022   0.4499   0.6799   0.7368   0.9560   1.2987   1.3253
     1.4368   1.4759   1.6007   1.6961   1.8595   2.3017   2.5252   2.7186
     2.9910   2.9966   3.3805   3.5734   3.6009   3.7583   3.8030   3.8082

     highest occupied level (ev):     3.8082

!    total energy              =    -922.12730029 Ry
     Harris-Foulkes estimate   =    -922.12730029 Ry
     estimated scf accuracy    <          1.9E-11 Ry

     The total energy is the sum of the following terms:

     one-electron contribution =    -591.03479700 Ry
     hartree contribution      =     334.87894878 Ry
     xc contribution           =    -174.09980955 Ry
     ewald contribution        =    -491.74104654 Ry
     Dispersion Correction     =      -0.13059599 Ry

     convergence has been achieved in  28 iterations

     Forces acting on atoms (cartesian axes, Ry/au):

     atom    1 type  1   force =     0.00000000   -0.00000775    0.00001283
     atom    2 type  1   force =     0.00000000    0.00000775   -0.00001283
     atom    3 type  1   force =     0.00000000    0.00000775    0.00001283
     atom    4 type  1   force =     0.00000000   -0.00000775   -0.00001283
     atom    5 type  2   force =    -0.00000000   -0.00004436    0.00007885
     atom    6 type  2   force =     0.00000000    0.00004436   -0.00007885
     atom    7 type  2   force =     0.00000000    0.00004436    0.00007885
     atom    8 type  2   force =    -0.00000000   -0.00004436   -0.00007885
     atom    9 type  2   force =     0.00000000    0.00004340    0.00009201
     atom   10 type  2   force =     0.00000000   -0.00004340   -0.00009201
     atom   11 type  2   force =     0.00000000   -0.00004340    0.00009201
     atom   12 type  2   force =     0.00000000    0.00001910    0.00000000
     atom   13 type  2   force =     0.00000000   -0.00001910    0.00000000
     atom   14 type  2   force =     0.00000000    0.00004340   -0.00009201

     Total force =     0.000275     Total SCF correction =     0.000010


     Computing stress (Cartesian axis) and pressure

          total   stress  (Ry/bohr**3)                   (kbar)     P=    1.76
   0.00001170   0.00000000   0.00000000          1.72      0.00      0.00
   0.00000000   0.00001206   0.00000000          0.00      1.77      0.00
   0.00000000   0.00000000   0.00001203          0.00      0.00      1.77


     BFGS Geometry Optimization

     number of scf cycles    =   1
     number of bfgs steps    =   0

     enthalpy new            =    -922.1273002875 Ry

     new trust radius        =       0.0021184399 bohr
     new conv_thr            =            1.0E-10 Ry

     new unit-cell volume =   1234.68160 a.u.^3 (   182.96093 Ang^3 )
     density =      3.30146 g/cm^3

CELL_PARAMETERS (alat=  6.68268247)
   1.000292590   0.000000000   0.000000000
   0.000000000   1.264040585   0.000000000
   0.000000000   0.000000000   3.272008531

ATOMIC_POSITIONS (crystal)
V        0.000000000   0.382888609   0.648078966
V        0.500000002   0.617111395   0.851921039
V        0.500000002   0.617111395   0.148078965
V        0.000000000   0.382888609   0.351921037
O        0.500000002   0.492369431   0.681294295
O        0.000000000   0.507630573   0.818705710
O        0.000000000   0.507630573   0.181294294
O        0.500000002   0.492369431   0.318705708
O        0.000000000   0.028869060   0.354172404
O        0.500000002   0.971130944   0.145827599
O        0.500000002   0.971130944   0.854172405
O        0.500000002   0.509145882   0.000000000
O        0.000000000   0.490854122   0.500000002
O        0.000000000   0.028869060   0.645827601



     Writing output data file v2o5.save/
     NEW-OLD atomic charge density approx. for the potential
     extrapolated charge  112.10017, renormalised to  112.00000

     total cpu time spent up to now is       56.9 secs

     Self-consistent Calculation

     iteration #  1     ecut=   120.00 Ry     beta= 0.70
     Davidson diagonalization with overlap
     ethr =  1.00E-06,  avg # of iterations =  5.2

     total cpu time spent up to now is       59.7 secs

     total energy              =    -922.12439394 Ry
     Harris-Foulkes estimate   =    -921.69338995 Ry
     estimated scf accuracy    <       0.00283187 Ry

     iteration #  2     ecut=   120.00 Ry     beta= 0.70
     Davidson diagonalization with overlap
     ethr =  2.53E-06,  avg # of iterations =  5.8

     total cpu time spent up to now is       62.7 secs

     total energy              =    -922.12140161 Ry
     Harris-Foulkes estimate   =    -922.13681411 Ry
     estimated scf accuracy    <       0.08092915 Ry

     iteration #  3     ecut=   120.00 Ry     beta= 0.70
     Davidson diagonalization with overlap
     ethr =  2.53E-06,  avg # of iterations =  5.0

     total cpu time spent up to now is       65.6 secs

     total energy              =    -922.12737051 Ry
     Harris-Foulkes estimate   =    -922.12758297 Ry
     estimated scf accuracy    <       0.00155638 Ry

     iteration #  4     ecut=   120.00 Ry     beta= 0.70
     Davidson diagonalization with overlap
     ethr =  1.39E-06,  avg # of iterations =  1.0

     total cpu time spent up to now is       66.8 secs

     total energy              =    -922.12726072 Ry
     Harris-Foulkes estimate   =    -922.12739892 Ry
     estimated scf accuracy    <       0.00109246 Ry

     iteration #  5     ecut=   120.00 Ry     beta= 0.70
     Davidson diagonalization with overlap
     ethr =  9.75E-07,  avg # of iterations =  2.0

     total cpu time spent up to now is       68.1 secs

     total energy              =    -922.12728246 Ry
     Harris-Foulkes estimate   =    -922.12729186 Ry
     estimated scf accuracy    <       0.00058195 Ry

     iteration #  6     ecut=   120.00 Ry     beta= 0.70
     Davidson diagonalization with overlap
     ethr =  5.20E-07,  avg # of iterations =  1.0

     total cpu time spent up to now is       69.3 secs

     total energy              =    -922.12729384 Ry
     Harris-Foulkes estimate   =    -922.12729548 Ry
     estimated scf accuracy    <       0.00051086 Ry

     iteration #  7     ecut=   120.00 Ry     beta= 0.70
     Davidson diagonalization with overlap
     ethr =  4.56E-07,  avg # of iterations =  1.0

     total cpu time spent up to now is       70.4 secs

     total energy              =    -922.12729920 Ry
     Harris-Foulkes estimate   =    -922.12730097 Ry
     estimated scf accuracy    <       0.00042713 Ry

     iteration #  8     ecut=   120.00 Ry     beta= 0.70
     Davidson diagonalization with overlap
     ethr =  3.81E-07,  avg # of iterations =  1.0

     total cpu time spent up to now is       71.7 secs

     total energy              =    -922.12730224 Ry
     Harris-Foulkes estimate   =    -922.12730510 Ry
     estimated scf accuracy    <       0.00036690 Ry

     iteration #  9     ecut=   120.00 Ry     beta= 0.70
     Davidson diagonalization with overlap
     ethr =  3.28E-07,  avg # of iterations =  1.0

     total cpu time spent up to now is       72.8 secs

     total energy              =    -922.12730398 Ry
     Harris-Foulkes estimate   =    -922.12730664 Ry
     estimated scf accuracy    <       0.00031956 Ry

     iteration # 10     ecut=   120.00 Ry     beta= 0.70
     Davidson diagonalization with overlap
     ethr =  2.85E-07,  avg # of iterations =  1.0

     total cpu time spent up to now is       74.1 secs

     total energy              =    -922.12726443 Ry
     Harris-Foulkes estimate   =    -922.12730748 Ry
     estimated scf accuracy    <       0.00027819 Ry

     iteration # 11     ecut=   120.00 Ry     beta= 0.70
     Davidson diagonalization with overlap
     ethr =  2.48E-07,  avg # of iterations =  4.0

     total cpu time spent up to now is       75.9 secs

     total energy              =    -922.12730253 Ry
     Harris-Foulkes estimate   =    -922.12730634 Ry
     estimated scf accuracy    <       0.00003642 Ry

     iteration # 12     ecut=   120.00 Ry     beta= 0.70
     Davidson diagonalization with overlap
     ethr =  3.25E-08,  avg # of iterations =  4.5

     total cpu time spent up to now is       78.0 secs

     total energy              =    -922.12732119 Ry
     Harris-Foulkes estimate   =    -922.12731623 Ry
     estimated scf accuracy    <       0.00005682 Ry

     iteration # 13     ecut=   120.00 Ry     beta= 0.70
     Davidson diagonalization with overlap
     ethr =  3.25E-08,  avg # of iterations =  2.8

     total cpu time spent up to now is       79.3 secs

     total energy              =    -922.12729530 Ry
     Harris-Foulkes estimate   =    -922.12732215 Ry
     estimated scf accuracy    <       0.00008366 Ry

     iteration # 14     ecut=   120.00 Ry     beta= 0.70
     Davidson diagonalization with overlap
     ethr =  3.25E-08,  avg # of iterations =  4.5

     total cpu time spent up to now is       81.6 secs

     total energy              =    -922.12730703 Ry
     Harris-Foulkes estimate   =    -922.12730853 Ry
     estimated scf accuracy    <       0.00000442 Ry

     iteration # 15     ecut=   120.00 Ry     beta= 0.70
     Davidson diagonalization with overlap
     ethr =  3.95E-09,  avg # of iterations =  4.5

     total cpu time spent up to now is       83.4 secs

     total energy              =    -922.12730767 Ry
     Harris-Foulkes estimate   =    -922.12730773 Ry
     estimated scf accuracy    <       0.00000011 Ry

     iteration # 16     ecut=   120.00 Ry     beta= 0.70
     Davidson diagonalization with overlap
     ethr =  9.87E-11,  avg # of iterations =  5.0

     total cpu time spent up to now is       86.4 secs

     total energy              =    -922.12730789 Ry
     Harris-Foulkes estimate   =    -922.12730798 Ry
     estimated scf accuracy    <       0.00000081 Ry

     iteration # 17     ecut=   120.00 Ry     beta= 0.70
     Davidson diagonalization with overlap
     ethr =  9.87E-11,  avg # of iterations =  3.8

     total cpu time spent up to now is       88.0 secs

     total energy              =    -922.12730780 Ry
     Harris-Foulkes estimate   =    -922.12730790 Ry
     estimated scf accuracy    <       0.00000053 Ry

     iteration # 18     ecut=   120.00 Ry     beta= 0.70
     Davidson diagonalization with overlap
     ethr =  9.87E-11,  avg # of iterations =  5.0

     total cpu time spent up to now is       90.7 secs

     total energy              =    -922.12730782 Ry
     Harris-Foulkes estimate   =    -922.12730786 Ry
     estimated scf accuracy    <       0.00000025 Ry

     iteration # 19     ecut=   120.00 Ry     beta= 0.70
     Davidson diagonalization with overlap
     ethr =  9.87E-11,  avg # of iterations =  3.5

     total cpu time spent up to now is       92.1 secs

     total energy              =    -922.12730781 Ry
     Harris-Foulkes estimate   =    -922.12730783 Ry
     estimated scf accuracy    <       0.00000008 Ry

     iteration # 20     ecut=   120.00 Ry     beta= 0.70
     Davidson diagonalization with overlap
     ethr =  7.08E-11,  avg # of iterations =  4.0

     total cpu time spent up to now is       93.9 secs

     total energy              =    -922.12730782 Ry
     Harris-Foulkes estimate   =    -922.12730782 Ry
     estimated scf accuracy    <          6.6E-09 Ry

     iteration # 21     ecut=   120.00 Ry     beta= 0.70
     Davidson diagonalization with overlap
     ethr =  5.86E-12,  avg # of iterations =  4.8

     total cpu time spent up to now is       96.4 secs

     total energy              =    -922.12730783 Ry
     Harris-Foulkes estimate   =    -922.12730783 Ry
     estimated scf accuracy    <       0.00000001 Ry

     iteration # 22     ecut=   120.00 Ry     beta= 0.70
     Davidson diagonalization with overlap
     ethr =  5.86E-12,  avg # of iterations =  2.5

     total cpu time spent up to now is       97.7 secs

     total energy              =    -922.12730782 Ry
     Harris-Foulkes estimate   =    -922.12730783 Ry
     estimated scf accuracy    <          6.8E-09 Ry

     iteration # 23     ecut=   120.00 Ry     beta= 0.70
     Davidson diagonalization with overlap
     ethr =  5.86E-12,  avg # of iterations =  4.0

     total cpu time spent up to now is       99.9 secs

     total energy              =    -922.12730783 Ry
     Harris-Foulkes estimate   =    -922.12730783 Ry
     estimated scf accuracy    <          3.1E-09 Ry

     iteration # 24     ecut=   120.00 Ry     beta= 0.70
     Davidson diagonalization with overlap
     ethr =  2.79E-12,  avg # of iterations =  1.0

     total cpu time spent up to now is      101.2 secs

     total energy              =    -922.12730783 Ry
     Harris-Foulkes estimate   =    -922.12730783 Ry
     estimated scf accuracy    <          1.9E-09 Ry

     iteration # 25     ecut=   120.00 Ry     beta= 0.70
     Davidson diagonalization with overlap
     ethr =  1.74E-12,  avg # of iterations =  1.0

     total cpu time spent up to now is      102.4 secs

     total energy              =    -922.12730783 Ry
     Harris-Foulkes estimate   =    -922.12730783 Ry
     estimated scf accuracy    <          1.3E-09 Ry

     iteration # 26     ecut=   120.00 Ry     beta= 0.70
     Davidson diagonalization with overlap
     ethr =  1.21E-12,  avg # of iterations =  4.0

     total cpu time spent up to now is      104.4 secs

     total energy              =    -922.12730783 Ry
     Harris-Foulkes estimate   =    -922.12730783 Ry
     estimated scf accuracy    <          6.0E-10 Ry

     iteration # 27     ecut=   120.00 Ry     beta= 0.70
     Davidson diagonalization with overlap
     ethr =  5.34E-13,  avg # of iterations =  1.0

     total cpu time spent up to now is      105.4 secs

     total energy              =    -922.12730783 Ry
     Harris-Foulkes estimate   =    -922.12730783 Ry
     estimated scf accuracy    <          5.7E-10 Ry

     iteration # 28     ecut=   120.00 Ry     beta= 0.70
     Davidson diagonalization with overlap
     ethr =  5.07E-13,  avg # of iterations =  1.0

     total cpu time spent up to now is      106.6 secs

     total energy              =    -922.12730783 Ry
     Harris-Foulkes estimate   =    -922.12730783 Ry
     estimated scf accuracy    <          3.6E-10 Ry

     iteration # 29     ecut=   120.00 Ry     beta= 0.70
     Davidson diagonalization with overlap
     ethr =  3.24E-13,  avg # of iterations =  1.5

     total cpu time spent up to now is      107.8 secs

     total energy              =    -922.12730783 Ry
     Harris-Foulkes estimate   =    -922.12730783 Ry
     estimated scf accuracy    <          2.0E-10 Ry

     iteration # 30     ecut=   120.00 Ry     beta= 0.70
     Davidson diagonalization with overlap
     ethr =  1.83E-13,  avg # of iterations =  4.8

     total cpu time spent up to now is      109.7 secs

     End of self-consistent calculation

          k = 0.0000 0.0000 0.0000 ( 27379 PWs)   bands (ev):

   -59.9778 -59.9758 -59.9670 -59.9650 -34.0129 -34.0105 -34.0037 -33.9982
   -33.9192 -33.8660 -33.8396 -33.8101 -33.8076 -33.7890 -33.7759 -33.7734
   -13.5454 -13.4221 -12.4574 -12.3300 -12.2449 -12.2039 -11.8230 -11.8185
   -11.6605 -11.6403  -0.4213  -0.4082  -0.3629  -0.2514  -0.0760   0.3593
     1.0548   1.1022   1.3337   1.3381   1.5705   1.6084   1.8596   1.8613
     1.8990   1.9962   2.0753   2.0836   2.1851   2.2738   2.3695   2.5023
     2.5117   2.9021   3.0233   3.0502   3.1010   3.3206   3.3516   3.4156

          k = 0.0000 0.2637 0.0000 ( 27396 PWs)   bands (ev):

   -59.9777 -59.9758 -59.9670 -59.9650 -34.0145 -34.0121 -34.0069 -34.0013
   -33.9188 -33.8656 -33.8396 -33.8100 -33.8075 -33.7890 -33.7759 -33.7734
   -13.4727 -13.3599 -12.3938 -12.3028 -12.2418 -12.1853 -11.8315 -11.8090
   -11.6320 -11.6071  -0.4671  -0.4537  -0.3998  -0.2953  -0.2430   0.0340
     0.2889   0.4686   0.5125   0.6605   1.1547   1.2977   1.3549   1.7994
     1.8543   2.0629   2.2132   2.3081   2.4720   2.5393   2.6796   2.7856
     3.0318   3.0391   3.0849   3.2020   3.2204   3.5001   3.5728   3.7142

          k = 0.3332 0.0000 0.0000 ( 27345 PWs)   bands (ev):

   -59.9733 -59.9714 -59.9679 -59.9660 -34.0070 -34.0046 -34.0013 -33.9971
   -33.9156 -33.8884 -33.8754 -33.8659 -33.8198 -33.8143 -33.7987 -33.7880
   -12.9683 -12.8272 -12.3543 -12.1897 -12.1797 -12.1546 -11.7619 -11.7515
   -11.7196 -11.6771  -0.9277  -0.8515  -0.1020  -0.0964   0.0260   0.3566
     0.4848   0.8685   0.8750   1.1735   1.2085   1.2456   1.6125   1.7491
     1.7591   1.9233   2.0010   2.0196   2.1017   2.1672   2.2582   2.3084
     2.3418   2.7432   3.0303   3.1124   3.1976   3.3862   3.5639   3.6307

          k = 0.3332 0.2637 0.0000 ( 27374 PWs)   bands (ev):

   -59.9733 -59.9713 -59.9679 -59.9660 -34.0089 -34.0065 -34.0041 -33.9998
   -33.9152 -33.8881 -33.8751 -33.8657 -33.8198 -33.8143 -33.7987 -33.7881
   -12.9051 -12.7800 -12.3131 -12.1865 -12.1635 -12.1387 -11.7487 -11.7294
   -11.6511 -11.6334  -0.9300  -0.8518  -0.1712  -0.1633  -0.0954   0.1568
     0.2577   0.3957   0.4430   0.6732   0.7297   0.9483   1.2900   1.3181
     1.4285   1.4678   1.5921   1.6879   1.8507   2.2930   2.5166   2.7093
     2.9814   2.9868   3.3710   3.5640   3.5914   3.7487   3.7930   3.7987

     highest occupied level (ev):     3.7987

!    total energy              =    -922.12730783 Ry
     Harris-Foulkes estimate   =    -922.12730783 Ry
     estimated scf accuracy    <          1.7E-11 Ry

     The total energy is the sum of the following terms:

     one-electron contribution =    -591.26610421 Ry
     hartree contribution      =     334.95092122 Ry
     xc contribution           =    -174.09169159 Ry
     ewald contribution        =    -491.58996229 Ry
     Dispersion Correction     =      -0.13047096 Ry

     convergence has been achieved in  30 iterations

     Forces acting on atoms (cartesian axes, Ry/au):

     atom    1 type  1   force =    -0.00000000   -0.00054119   -0.00015866
     atom    2 type  1   force =     0.00000000    0.00054119    0.00015866
     atom    3 type  1   force =     0.00000000    0.00054119   -0.00015866
     atom    4 type  1   force =    -0.00000000   -0.00054119    0.00015866
     atom    5 type  2   force =     0.00000000   -0.00017307    0.00015334
     atom    6 type  2   force =     0.00000000    0.00017307   -0.00015334
     atom    7 type  2   force =     0.00000000    0.00017307    0.00015334
     atom    8 type  2   force =     0.00000000   -0.00017307   -0.00015334
     atom    9 type  2   force =     0.00000000    0.00098824    0.00005746
     atom   10 type  2   force =     0.00000000   -0.00098824   -0.00005746
     atom   11 type  2   force =     0.00000000   -0.00098824    0.00005746
     atom   12 type  2   force =     0.00000000    0.00029619    0.00000000
     atom   13 type  2   force =    -0.00000000   -0.00029619    0.00000000
     atom   14 type  2   force =    -0.00000000    0.00098824   -0.00005746

     Total force =     0.002362     Total SCF correction =     0.000010


     Computing stress (Cartesian axis) and pressure

          total   stress  (Ry/bohr**3)                   (kbar)     P=    0.21
   0.00000203   0.00000000   0.00000000          0.30      0.00      0.00
   0.00000000   0.00000055   0.00000000          0.00      0.08      0.00
   0.00000000   0.00000000   0.00000162          0.00      0.00      0.24


     number of scf cycles    =   2
     number of bfgs steps    =   1

     enthalpy old            =    -922.1273002875 Ry
     enthalpy new            =    -922.1273078259 Ry

     CASE: enthalpy_new < enthalpy_old

     new trust radius        =       0.0015739222 bohr
     new conv_thr            =            1.0E-12 Ry

     new unit-cell volume =   1235.45535 a.u.^3 (   183.07559 Ang^3 )
     density =      3.29939 g/cm^3

CELL_PARAMETERS (alat=  6.68268247)
   1.000516618   0.000000000   0.000000000
   0.000000000   1.264275673   0.000000000
   0.000000000   0.000000000   3.272717275

ATOMIC_POSITIONS (crystal)
V       -0.000000000   0.382813698   0.648070871
V        0.500000002   0.617186306   0.851929134
V        0.500000002   0.617186306   0.148070870
V       -0.000000000   0.382813698   0.351929132
O        0.500000002   0.492342678   0.681304473
O        0.000000000   0.507657326   0.818695532
O        0.000000000   0.507657326   0.181304472
O        0.500000002   0.492342678   0.318695530
O        0.000000000   0.029007804   0.354177829
O        0.500000002   0.970992200   0.145822174
O        0.500000002   0.970992200   0.854177830
O        0.500000002   0.509187873   0.000000000
O       -0.000000000   0.490812131   0.500000002
O       -0.000000000   0.029007804   0.645822176



     Writing output data file v2o5.save/
     NEW-OLD atomic charge density approx. for the potential
     extrapolated charge  112.07014, renormalised to  112.00000

     total cpu time spent up to now is      114.2 secs

     Self-consistent Calculation

     iteration #  1     ecut=   120.00 Ry     beta= 0.70
     Davidson diagonalization with overlap
     ethr =  1.00E-06,  avg # of iterations =  4.0

     total cpu time spent up to now is      116.7 secs

     total energy              =    -922.12618508 Ry
     Harris-Foulkes estimate   =    -921.82321996 Ry
     estimated scf accuracy    <       0.00104852 Ry

     iteration #  2     ecut=   120.00 Ry     beta= 0.70
     Davidson diagonalization with overlap
     ethr =  9.36E-07,  avg # of iterations =  5.5

     total cpu time spent up to now is      119.7 secs

     total energy              =    -922.12521979 Ry
     Harris-Foulkes estimate   =    -922.13081856 Ry
     estimated scf accuracy    <       0.02909337 Ry

     iteration #  3     ecut=   120.00 Ry     beta= 0.70
     Davidson diagonalization with overlap
     ethr =  9.36E-07,  avg # of iterations =  5.0

     total cpu time spent up to now is      122.7 secs

     total energy              =    -922.12734119 Ry
     Harris-Foulkes estimate   =    -922.12742727 Ry
     estimated scf accuracy    <       0.00063341 Ry

     iteration #  4     ecut=   120.00 Ry     beta= 0.70
     Davidson diagonalization with overlap
     ethr =  5.66E-07,  avg # of iterations =  1.0

     total cpu time spent up to now is      123.9 secs

     total energy              =    -922.12728539 Ry
     Harris-Foulkes estimate   =    -922.12735163 Ry
     estimated scf accuracy    <       0.00045219 Ry

     iteration #  5     ecut=   120.00 Ry     beta= 0.70
     Davidson diagonalization with overlap
     ethr =  4.04E-07,  avg # of iterations =  2.2

     total cpu time spent up to now is      125.2 secs

     total energy              =    -922.12730392 Ry
     Harris-Foulkes estimate   =    -922.12730022 Ry
     estimated scf accuracy    <       0.00021206 Ry

     iteration #  6     ecut=   120.00 Ry     beta= 0.70
     Davidson diagonalization with overlap
     ethr =  1.89E-07,  avg # of iterations =  1.2

     total cpu time spent up to now is      126.5 secs

     total energy              =    -922.12730895 Ry
     Harris-Foulkes estimate   =    -922.12730956 Ry
     estimated scf accuracy    <       0.00020436 Ry

     iteration #  7     ecut=   120.00 Ry     beta= 0.70
     Davidson diagonalization with overlap
     ethr =  1.82E-07,  avg # of iterations =  1.0

     total cpu time spent up to now is      127.7 secs

     total energy              =    -922.12730969 Ry
     Harris-Foulkes estimate   =    -922.12731152 Ry
     estimated scf accuracy    <       0.00017166 Ry

     iteration #  8     ecut=   120.00 Ry     beta= 0.70
     Davidson diagonalization with overlap
     ethr =  1.53E-07,  avg # of iterations =  1.0

     total cpu time spent up to now is      128.9 secs

     total energy              =    -922.12731170 Ry
     Harris-Foulkes estimate   =    -922.12731174 Ry
     estimated scf accuracy    <       0.00015346 Ry

     iteration #  9     ecut=   120.00 Ry     beta= 0.70
     Davidson diagonalization with overlap
     ethr =  1.37E-07,  avg # of iterations =  1.0

     total cpu time spent up to now is      130.1 secs

     total energy              =    -922.12731209 Ry
     Harris-Foulkes estimate   =    -922.12731323 Ry
     estimated scf accuracy    <       0.00013475 Ry

     iteration # 10     ecut=   120.00 Ry     beta= 0.70
     Davidson diagonalization with overlap
     ethr =  1.20E-07,  avg # of iterations =  1.0

     total cpu time spent up to now is      131.4 secs

     total energy              =    -922.12728428 Ry
     Harris-Foulkes estimate   =    -922.12731338 Ry
     estimated scf accuracy    <       0.00011977 Ry

     iteration # 11     ecut=   120.00 Ry     beta= 0.70
     Davidson diagonalization with overlap
     ethr =  1.07E-07,  avg # of iterations =  4.2

     total cpu time spent up to now is      133.6 secs

     total energy              =    -922.12730768 Ry
     Harris-Foulkes estimate   =    -922.12731354 Ry
     estimated scf accuracy    <       0.00002066 Ry

     iteration # 12     ecut=   120.00 Ry     beta= 0.70
     Davidson diagonalization with overlap
     ethr =  1.84E-08,  avg # of iterations =  4.5

     total cpu time spent up to now is      135.7 secs

     total energy              =    -922.12731212 Ry
     Harris-Foulkes estimate   =    -922.12731383 Ry
     estimated scf accuracy    <       0.00001807 Ry

     iteration # 13     ecut=   120.00 Ry     beta= 0.70
     Davidson diagonalization with overlap
     ethr =  1.61E-08,  avg # of iterations =  3.2

     total cpu time spent up to now is      136.9 secs

     total energy              =    -922.12731336 Ry
     Harris-Foulkes estimate   =    -922.12731338 Ry
     estimated scf accuracy    <       0.00001422 Ry

     iteration # 14     ecut=   120.00 Ry     beta= 0.70
     Davidson diagonalization with overlap
     ethr =  1.27E-08,  avg # of iterations =  4.0

     total cpu time spent up to now is      138.3 secs

     total energy              =    -922.12730971 Ry
     Harris-Foulkes estimate   =    -922.12731439 Ry
     estimated scf accuracy    <       0.00001903 Ry

     iteration # 15     ecut=   120.00 Ry     beta= 0.70
     Davidson diagonalization with overlap
     ethr =  1.27E-08,  avg # of iterations =  3.5

     total cpu time spent up to now is      139.7 secs

     total energy              =    -922.12730936 Ry
     Harris-Foulkes estimate   =    -922.12731076 Ry
     estimated scf accuracy    <       0.00000640 Ry

     iteration # 16     ecut=   120.00 Ry     beta= 0.70
     Davidson diagonalization with overlap
     ethr =  5.72E-09,  avg # of iterations =  4.0

     total cpu time spent up to now is      141.7 secs

     total energy              =    -922.12731199 Ry
     Harris-Foulkes estimate   =    -922.12731095 Ry
     estimated scf accuracy    <       0.00000370 Ry

     iteration # 17     ecut=   120.00 Ry     beta= 0.70
     Davidson diagonalization with overlap
     ethr =  3.31E-09,  avg # of iterations =  5.0

     total cpu time spent up to now is      144.3 secs

     total energy              =    -922.12730876 Ry
     Harris-Foulkes estimate   =    -922.12731483 Ry
     estimated scf accuracy    <       0.00003802 Ry

     iteration # 18     ecut=   120.00 Ry     beta= 0.70
     Davidson diagonalization with overlap
     ethr =  3.31E-09,  avg # of iterations =  4.8

     total cpu time spent up to now is      146.6 secs

     total energy              =    -922.12731004 Ry
     Harris-Foulkes estimate   =    -922.12731067 Ry
     estimated scf accuracy    <       0.00000374 Ry

     iteration # 19     ecut=   120.00 Ry     beta= 0.70
     Davidson diagonalization with overlap
     ethr =  3.31E-09,  avg # of iterations =  1.0

     total cpu time spent up to now is      147.8 secs

     total energy              =    -922.12730973 Ry
     Harris-Foulkes estimate   =    -922.12731012 Ry
     estimated scf accuracy    <       0.00000194 Ry

     iteration # 20     ecut=   120.00 Ry     beta= 0.70
     Davidson diagonalization with overlap
     ethr =  1.73E-09,  avg # of iterations =  4.0

     total cpu time spent up to now is      150.0 secs

     total energy              =    -922.12731020 Ry
     Harris-Foulkes estimate   =    -922.12731027 Ry
     estimated scf accuracy    <       0.00000046 Ry

     iteration # 21     ecut=   120.00 Ry     beta= 0.70
     Davidson diagonalization with overlap
     ethr =  4.09E-10,  avg # of iterations =  1.8

     total cpu time spent up to now is      151.3 secs

     total energy              =    -922.12731016 Ry
     Harris-Foulkes estimate   =    -922.12731021 Ry
     estimated scf accuracy    <       0.00000028 Ry

     iteration # 22     ecut=   120.00 Ry     beta= 0.70
     Davidson diagonalization with overlap
     ethr =  2.49E-10,  avg # of iterations =  4.2

     total cpu time spent up to now is      153.2 secs

     total energy              =    -922.12731021 Ry
     Harris-Foulkes estimate   =    -922.12731021 Ry
     estimated scf accuracy    <       0.00000001 Ry

     iteration # 23     ecut=   120.00 Ry     beta= 0.70
     Davidson diagonalization with overlap
     ethr =  9.53E-12,  avg # of iterations =  5.0

     total cpu time spent up to now is      155.3 secs

     total energy              =    -922.12731022 Ry
     Harris-Foulkes estimate   =    -922.12731022 Ry
     estimated scf accuracy    <       0.00000002 Ry

     iteration # 24     ecut=   120.00 Ry     beta= 0.70
     Davidson diagonalization with overlap
     ethr =  9.53E-12,  avg # of iterations =  1.0

     total cpu time spent up to now is      156.6 secs

     total energy              =    -922.12731021 Ry
     Harris-Foulkes estimate   =    -922.12731022 Ry
     estimated scf accuracy    <       0.00000001 Ry

     iteration # 25     ecut=   120.00 Ry     beta= 0.70
     Davidson diagonalization with overlap
     ethr =  9.53E-12,  avg # of iterations =  3.5

     total cpu time spent up to now is      158.1 secs

     total energy              =    -922.12731021 Ry
     Harris-Foulkes estimate   =    -922.12731021 Ry
     estimated scf accuracy    <          2.0E-09 Ry

     iteration # 26     ecut=   120.00 Ry     beta= 0.70
     Davidson diagonalization with overlap
     ethr =  1.82E-12,  avg # of iterations =  4.5

     total cpu time spent up to now is      160.2 secs

     total energy              =    -922.12731022 Ry
     Harris-Foulkes estimate   =    -922.12731022 Ry
     estimated scf accuracy    <          6.3E-11 Ry

     iteration # 27     ecut=   120.00 Ry     beta= 0.70
     Davidson diagonalization with overlap
     ethr =  1.00E-13,  avg # of iterations =  3.5

     total cpu time spent up to now is      161.6 secs

     total energy              =    -922.12731022 Ry
     Harris-Foulkes estimate   =    -922.12731022 Ry
     estimated scf accuracy    <          7.2E-11 Ry

     iteration # 28     ecut=   120.00 Ry     beta= 0.70
     Davidson diagonalization with overlap
     ethr =  1.00E-13,  avg # of iterations =  4.0

     total cpu time spent up to now is      163.9 secs

     total energy              =    -922.12731022 Ry
     Harris-Foulkes estimate   =    -922.12731022 Ry
     estimated scf accuracy    <          6.0E-10 Ry

     iteration # 29     ecut=   120.00 Ry     beta= 0.70
     Davidson diagonalization with overlap
     ethr =  1.00E-13,  avg # of iterations =  3.2

     total cpu time spent up to now is      165.5 secs

     total energy              =    -922.12731021 Ry
     Harris-Foulkes estimate   =    -922.12731022 Ry
     estimated scf accuracy    <          3.6E-10 Ry

     iteration # 30     ecut=   120.00 Ry     beta= 0.70
     Davidson diagonalization with overlap
     ethr =  1.00E-13,  avg # of iterations =  4.0

     total cpu time spent up to now is      167.4 secs

     total energy              =    -922.12731022 Ry
     Harris-Foulkes estimate   =    -922.12731022 Ry
     estimated scf accuracy    <          1.2E-11 Ry

     iteration # 31     ecut=   120.00 Ry     beta= 0.70
     Davidson diagonalization with overlap
     ethr =  1.00E-13,  avg # of iterations =  1.0

     total cpu time spent up to now is      168.7 secs

     total energy              =    -922.12731022 Ry
     Harris-Foulkes estimate   =    -922.12731022 Ry
     estimated scf accuracy    <          4.1E-12 Ry

     iteration # 32     ecut=   120.00 Ry     beta= 0.70
     Davidson diagonalization with overlap
     ethr =  1.00E-13,  avg # of iterations =  3.5

     total cpu time spent up to now is      170.4 secs

     total energy              =    -922.12731022 Ry
     Harris-Foulkes estimate   =    -922.12731022 Ry
     estimated scf accuracy    <          5.7E-11 Ry

     iteration # 33     ecut=   120.00 Ry     beta= 0.70
     Davidson diagonalization with overlap
     ethr =  1.00E-13,  avg # of iterations =  1.0

     total cpu time spent up to now is      171.7 secs

     total energy              =    -922.12731022 Ry
     Harris-Foulkes estimate   =    -922.12731022 Ry
     estimated scf accuracy    <          3.6E-11 Ry

     iteration # 34     ecut=   120.00 Ry     beta= 0.70
     Davidson diagonalization with overlap
     ethr =  1.00E-13,  avg # of iterations =  1.0

     total cpu time spent up to now is      173.0 secs

     total energy              =    -922.12731022 Ry
     Harris-Foulkes estimate   =    -922.12731022 Ry
     estimated scf accuracy    <          2.4E-11 Ry

     iteration # 35     ecut=   120.00 Ry     beta= 0.70
     Davidson diagonalization with overlap
     ethr =  1.00E-13,  avg # of iterations =  1.0

     total cpu time spent up to now is      174.2 secs

     total energy              =    -922.12731022 Ry
     Harris-Foulkes estimate   =    -922.12731022 Ry
     estimated scf accuracy    <          2.0E-11 Ry

     iteration # 36     ecut=   120.00 Ry     beta= 0.70
     Davidson diagonalization with overlap
     ethr =  1.00E-13,  avg # of iterations =  1.0

     total cpu time spent up to now is      175.4 secs

     total energy              =    -922.12731022 Ry
     Harris-Foulkes estimate   =    -922.12731022 Ry
     estimated scf accuracy    <          1.1E-11 Ry

     iteration # 37     ecut=   120.00 Ry     beta= 0.70
     Davidson diagonalization with overlap
     ethr =  1.00E-13,  avg # of iterations =  1.0

     total cpu time spent up to now is      176.7 secs

     total energy              =    -922.12731022 Ry
     Harris-Foulkes estimate   =    -922.12731022 Ry
     estimated scf accuracy    <          7.7E-12 Ry

     iteration # 38     ecut=   120.00 Ry     beta= 0.70
     Davidson diagonalization with overlap
     ethr =  1.00E-13,  avg # of iterations =  1.0

     total cpu time spent up to now is      177.9 secs

     total energy              =    -922.12731022 Ry
     Harris-Foulkes estimate   =    -922.12731022 Ry
     estimated scf accuracy    <          1.4E-12 Ry

     iteration # 39     ecut=   120.00 Ry     beta= 0.70
     Davidson diagonalization with overlap
     ethr =  1.00E-13,  avg # of iterations =  1.0

     total cpu time spent up to now is      179.2 secs

     End of self-consistent calculation

          k = 0.0000 0.0000 0.0000 ( 27379 PWs)   bands (ev):

   -59.9844 -59.9825 -59.9737 -59.9717 -34.0214 -34.0191 -34.0123 -34.0068
   -33.9250 -33.8719 -33.8457 -33.8159 -33.8134 -33.7951 -33.7818 -33.7794
   -13.5476 -13.4243 -12.4617 -12.3325 -12.2478 -12.2088 -11.8320 -11.8272
   -11.6699 -11.6494  -0.4240  -0.4110  -0.3650  -0.2533  -0.0802   0.3541
     1.0513   1.0930   1.3296   1.3310   1.5632   1.6011   1.8504   1.8507
     1.8873   1.9856   2.0676   2.0721   2.1807   2.2614   2.3606   2.4921
     2.5069   2.8966   3.0136   3.0403   3.0978   3.3135   3.3473   3.4085

          k = 0.0000 0.2637 0.0000 ( 27396 PWs)   bands (ev):

   -59.9844 -59.9824 -59.9737 -59.9717 -34.0231 -34.0207 -34.0155 -34.0099
   -33.9246 -33.8715 -33.8457 -33.8157 -33.8133 -33.7952 -33.7818 -33.7794
   -13.4747 -13.3620 -12.3979 -12.3051 -12.2448 -12.1901 -11.8405 -11.8182
   -11.6417 -11.6170  -0.4700  -0.4567  -0.4025  -0.2974  -0.2472   0.0283
     0.2837   0.4636   0.5053   0.6524   1.1463   1.2900   1.3471   1.7899
     1.8443   2.0568   2.2089   2.3026   2.4657   2.5270   2.6691   2.7742
     3.0229   3.0300   3.0796   3.1973   3.2160   3.4930   3.5663   3.7057

          k = 0.3332 0.0000 0.0000 ( 27345 PWs)   bands (ev):

   -59.9800 -59.9780 -59.9746 -59.9727 -34.0156 -34.0132 -34.0100 -34.0057
   -33.9213 -33.8941 -33.8812 -33.8716 -33.8257 -33.8202 -33.8047 -33.7941
   -12.9715 -12.8303 -12.3591 -12.1927 -12.1832 -12.1595 -11.7711 -11.7604
   -11.7293 -11.6863  -0.9293  -0.8532  -0.1054  -0.0985   0.0218   0.3533
     0.4817   0.8637   0.8713   1.1671   1.2009   1.2364   1.6045   1.7403
     1.7500   1.9143   1.9907   2.0099   2.0917   2.1602   2.2479   2.3014
     2.3313   2.7368   3.0235   3.1037   3.1915   3.3784   3.5590   3.6259

          k = 0.3332 0.2637 0.0000 ( 27374 PWs)   bands (ev):

   -59.9799 -59.9780 -59.9746 -59.9726 -34.0175 -34.0151 -34.0127 -34.0084
   -33.9209 -33.8938 -33.8808 -33.8713 -33.8257 -33.8202 -33.8047 -33.7942
   -12.9080 -12.7830 -12.3173 -12.1895 -12.1673 -12.1436 -11.7580 -11.7390
   -11.6607 -11.6433  -0.9315  -0.8534  -0.1738  -0.1672  -0.0998   0.1512
     0.2541   0.3923   0.4378   0.6661   0.7225   0.9436   1.2811   1.3131
     1.4215   1.4603   1.5837   1.6802   1.8411   2.2825   2.5091   2.6987
     2.9737   2.9803   3.3627   3.5568   3.5844   3.7407   3.7870   3.7924

     highest occupied level (ev):     3.7924

!    total energy              =    -922.12731022 Ry
     Harris-Foulkes estimate   =    -922.12731022 Ry
     estimated scf accuracy    <          7.4E-13 Ry

     The total energy is the sum of the following terms:

     one-electron contribution =    -591.56094101 Ry
     hartree contribution      =     335.07085073 Ry
     xc contribution           =    -174.09051376 Ry
     ewald contribution        =    -491.41631486 Ry
     Dispersion Correction     =      -0.13039132 Ry

     convergence has been achieved in  39 iterations

     Forces acting on atoms (cartesian axes, Ry/au):

     atom    1 type  1   force =     0.00000000    0.00093512   -0.00002555
     atom    2 type  1   force =     0.00000000   -0.00093512    0.00002555
     atom    3 type  1   force =     0.00000000   -0.00093512   -0.00002555
     atom    4 type  1   force =    -0.00000000    0.00093512    0.00002555
     atom    5 type  2   force =    -0.00000000   -0.00027844    0.00015149
     atom    6 type  2   force =     0.00000000    0.00027844   -0.00015149
     atom    7 type  2   force =     0.00000000    0.00027844    0.00015149
     atom    8 type  2   force =    -0.00000000   -0.00027844   -0.00015149
     atom    9 type  2   force =     0.00000000   -0.00016903    0.00006083
     atom   10 type  2   force =    -0.00000000    0.00016903   -0.00006083
     atom   11 type  2   force =    -0.00000000    0.00016903    0.00006083
     atom   12 type  2   force =     0.00000000    0.00041673    0.00000000
     atom   13 type  2   force =    -0.00000000   -0.00041673    0.00000000
     atom   14 type  2   force =     0.00000000   -0.00016903   -0.00006083

     Total force =     0.002093     Total SCF correction =     0.000002


     Computing stress (Cartesian axis) and pressure

          total   stress  (Ry/bohr**3)                   (kbar)     P=   -0.02
  -0.00000565   0.00000000   0.00000000         -0.83      0.00      0.00
   0.00000000   0.00001035   0.00000000          0.00      1.52      0.00
   0.00000000   0.00000000  -0.00000510          0.00      0.00     -0.75


     number of scf cycles    =   3
     number of bfgs steps    =   2

     enthalpy old            =    -922.1273078259 Ry
     enthalpy new            =    -922.1273102150 Ry

     CASE: enthalpy_new < enthalpy_old

     new trust radius        =       0.0017052555 bohr
     new conv_thr            =            1.0E-12 Ry

     new unit-cell volume =   1235.70127 a.u.^3 (   183.11203 Ang^3 )
     density =      3.29873 g/cm^3

CELL_PARAMETERS (alat=  6.68268247)
   1.000492532   0.000000000   0.000000000
   0.000000000   1.264582355   0.000000000
   0.000000000   0.000000000   3.272653659

ATOMIC_POSITIONS (crystal)
V       -0.000000000   0.382851891   0.648065389
V        0.500000002   0.617148113   0.851934616
V        0.500000002   0.617148113   0.148065388
V       -0.000000000   0.382851891   0.351934614
O        0.500000002   0.492304679   0.681314609
O        0.000000000   0.507695325   0.818685396
O        0.000000000   0.507695325   0.181314608
O        0.500000002   0.492304679   0.318685394
O        0.000000000   0.029070338   0.354182202
O        0.500000002   0.970929666   0.145817801
O        0.500000002   0.970929666   0.854182203
O        0.500000002   0.509246748   0.000000000
O       -0.000000000   0.490753256   0.500000002
O       -0.000000000   0.029070338   0.645817803



     Writing output data file v2o5.save/
     NEW-OLD atomic charge density approx. for the potential
     extrapolated charge  112.02229, renormalised to  112.00000

     total cpu time spent up to now is      183.4 secs

     Self-consistent Calculation

     iteration #  1     ecut=   120.00 Ry     beta= 0.70
     Davidson diagonalization with overlap
     ethr =  1.00E-06,  avg # of iterations =  2.0

     Threshold (ethr) on eigenvalues was too large:
     Diagonalizing with lowered threshold

     Davidson diagonalization with overlap
     ethr =  2.24E-08,  avg # of iterations =  4.0

     total cpu time spent up to now is      187.9 secs

     total energy              =    -922.12717421 Ry
     Harris-Foulkes estimate   =    -922.03063294 Ry
     estimated scf accuracy    <       0.00013520 Ry

     iteration #  2     ecut=   120.00 Ry     beta= 0.70
     Davidson diagonalization with overlap
     ethr =  1.21E-07,  avg # of iterations =  5.8

     total cpu time spent up to now is      191.0 secs

     total energy              =    -922.12704894 Ry
     Harris-Foulkes estimate   =    -922.12776491 Ry
     estimated scf accuracy    <       0.00369697 Ry

     iteration #  3     ecut=   120.00 Ry     beta= 0.70
     Davidson diagonalization with overlap
     ethr =  1.21E-07,  avg # of iterations =  5.0

     total cpu time spent up to now is      193.9 secs

     total energy              =    -922.12731790 Ry
     Harris-Foulkes estimate   =    -922.12732902 Ry
     estimated scf accuracy    <       0.00008389 Ry

     iteration #  4     ecut=   120.00 Ry     beta= 0.70
     Davidson diagonalization with overlap
     ethr =  7.49E-08,  avg # of iterations =  1.0

     total cpu time spent up to now is      195.1 secs

     total energy              =    -922.12731109 Ry
     Harris-Foulkes estimate   =    -922.12731932 Ry
     estimated scf accuracy    <       0.00005942 Ry

     iteration #  5     ecut=   120.00 Ry     beta= 0.70
     Davidson diagonalization with overlap
     ethr =  5.31E-08,  avg # of iterations =  2.0

     total cpu time spent up to now is      196.4 secs

     total energy              =    -922.12731237 Ry
     Harris-Foulkes estimate   =    -922.12731300 Ry
     estimated scf accuracy    <       0.00002867 Ry

     iteration #  6     ecut=   120.00 Ry     beta= 0.70
     Davidson diagonalization with overlap
     ethr =  2.56E-08,  avg # of iterations =  2.2

     total cpu time spent up to now is      197.7 secs

     total energy              =    -922.12731358 Ry
     Harris-Foulkes estimate   =    -922.12731333 Ry
     estimated scf accuracy    <       0.00002333 Ry

     iteration #  7     ecut=   120.00 Ry     beta= 0.70
     Davidson diagonalization with overlap
     ethr =  2.08E-08,  avg # of iterations =  1.0

     total cpu time spent up to now is      198.9 secs

     total energy              =    -922.12731243 Ry
     Harris-Foulkes estimate   =    -922.12731395 Ry
     estimated scf accuracy    <       0.00002045 Ry

     iteration #  8     ecut=   120.00 Ry     beta= 0.70
     Davidson diagonalization with overlap
     ethr =  1.83E-08,  avg # of iterations =  1.5

     total cpu time spent up to now is      200.1 secs

     total energy              =    -922.12731271 Ry
     Harris-Foulkes estimate   =    -922.12731311 Ry
     estimated scf accuracy    <       0.00001298 Ry

     iteration #  9     ecut=   120.00 Ry     beta= 0.70
     Davidson diagonalization with overlap
     ethr =  1.16E-08,  avg # of iterations =  4.0

     total cpu time spent up to now is      201.8 secs

     total energy              =    -922.12731364 Ry
     Harris-Foulkes estimate   =    -922.12731487 Ry
     estimated scf accuracy    <       0.00000442 Ry

     iteration # 10     ecut=   120.00 Ry     beta= 0.70
     Davidson diagonalization with overlap
     ethr =  3.95E-09,  avg # of iterations =  4.2

     total cpu time spent up to now is      203.8 secs

     total energy              =    -922.12731425 Ry
     Harris-Foulkes estimate   =    -922.12731481 Ry
     estimated scf accuracy    <       0.00000201 Ry

     iteration # 11     ecut=   120.00 Ry     beta= 0.70
     Davidson diagonalization with overlap
     ethr =  1.80E-09,  avg # of iterations =  4.0

     total cpu time spent up to now is      205.7 secs

     total energy              =    -922.12731459 Ry
     Harris-Foulkes estimate   =    -922.12731460 Ry
     estimated scf accuracy    <       0.00000073 Ry

     iteration # 12     ecut=   120.00 Ry     beta= 0.70
     Davidson diagonalization with overlap
     ethr =  6.56E-10,  avg # of iterations =  4.0

     total cpu time spent up to now is      207.6 secs

     total energy              =    -922.12731452 Ry
     Harris-Foulkes estimate   =    -922.12731472 Ry
     estimated scf accuracy    <       0.00000116 Ry

     iteration # 13     ecut=   120.00 Ry     beta= 0.70
     Davidson diagonalization with overlap
     ethr =  6.56E-10,  avg # of iterations =  4.0

     total cpu time spent up to now is      209.4 secs

     total energy              =    -922.12731451 Ry
     Harris-Foulkes estimate   =    -922.12731463 Ry
     estimated scf accuracy    <       0.00000065 Ry

     iteration # 14     ecut=   120.00 Ry     beta= 0.70
     Davidson diagonalization with overlap
     ethr =  5.79E-10,  avg # of iterations =  4.0

     total cpu time spent up to now is      210.8 secs

     total energy              =    -922.12731455 Ry
     Harris-Foulkes estimate   =    -922.12731457 Ry
     estimated scf accuracy    <       0.00000043 Ry

     iteration # 15     ecut=   120.00 Ry     beta= 0.70
     Davidson diagonalization with overlap
     ethr =  3.81E-10,  avg # of iterations =  1.0

     total cpu time spent up to now is      212.0 secs

     total energy              =    -922.12731451 Ry
     Harris-Foulkes estimate   =    -922.12731456 Ry
     estimated scf accuracy    <       0.00000037 Ry

     iteration # 16     ecut=   120.00 Ry     beta= 0.70
     Davidson diagonalization with overlap
     ethr =  3.31E-10,  avg # of iterations =  3.5

     total cpu time spent up to now is      213.4 secs

     total energy              =    -922.12731449 Ry
     Harris-Foulkes estimate   =    -922.12731452 Ry
     estimated scf accuracy    <       0.00000014 Ry

     iteration # 17     ecut=   120.00 Ry     beta= 0.70
     Davidson diagonalization with overlap
     ethr =  1.28E-10,  avg # of iterations =  4.0

     total cpu time spent up to now is      215.5 secs

     total energy              =    -922.12731453 Ry
     Harris-Foulkes estimate   =    -922.12731454 Ry
     estimated scf accuracy    <       0.00000008 Ry

     iteration # 18     ecut=   120.00 Ry     beta= 0.70
     Davidson diagonalization with overlap
     ethr =  6.78E-11,  avg # of iterations =  2.0

     total cpu time spent up to now is      216.7 secs

     total energy              =    -922.12731453 Ry
     Harris-Foulkes estimate   =    -922.12731453 Ry
     estimated scf accuracy    <       0.00000005 Ry

     iteration # 19     ecut=   120.00 Ry     beta= 0.70
     Davidson diagonalization with overlap
     ethr =  4.87E-11,  avg # of iterations =  3.0

     total cpu time spent up to now is      218.1 secs

     total energy              =    -922.12731453 Ry
     Harris-Foulkes estimate   =    -922.12731453 Ry
     estimated scf accuracy    <          6.1E-09 Ry

     iteration # 20     ecut=   120.00 Ry     beta= 0.70
     Davidson diagonalization with overlap
     ethr =  5.42E-12,  avg # of iterations =  4.5

     total cpu time spent up to now is      220.3 secs

     total energy              =    -922.12731453 Ry
     Harris-Foulkes estimate   =    -922.12731453 Ry
     estimated scf accuracy    <          2.3E-09 Ry

     iteration # 21     ecut=   120.00 Ry     beta= 0.70
     Davidson diagonalization with overlap
     ethr =  2.02E-12,  avg # of iterations =  4.8

     total cpu time spent up to now is      222.5 secs

     total energy              =    -922.12731453 Ry
     Harris-Foulkes estimate   =    -922.12731453 Ry
     estimated scf accuracy    <          5.2E-09 Ry

     iteration # 22     ecut=   120.00 Ry     beta= 0.70
     Davidson diagonalization with overlap
     ethr =  2.02E-12,  avg # of iterations =  3.2

     total cpu time spent up to now is      223.9 secs

     total energy              =    -922.12731453 Ry
     Harris-Foulkes estimate   =    -922.12731453 Ry
     estimated scf accuracy    <          2.8E-09 Ry

     iteration # 23     ecut=   120.00 Ry     beta= 0.70
     Davidson diagonalization with overlap
     ethr =  2.02E-12,  avg # of iterations =  4.0

     total cpu time spent up to now is      225.7 secs

     total energy              =    -922.12731453 Ry
     Harris-Foulkes estimate   =    -922.12731453 Ry
     estimated scf accuracy    <          2.0E-10 Ry

     iteration # 24     ecut=   120.00 Ry     beta= 0.70
     Davidson diagonalization with overlap
     ethr =  1.76E-13,  avg # of iterations =  4.8

     total cpu time spent up to now is      228.1 secs

     total energy              =    -922.12731453 Ry
     Harris-Foulkes estimate   =    -922.12731453 Ry
     estimated scf accuracy    <          3.0E-10 Ry

     iteration # 25     ecut=   120.00 Ry     beta= 0.70
     Davidson diagonalization with overlap
     ethr =  1.76E-13,  avg # of iterations =  1.0

     total cpu time spent up to now is      229.3 secs

     total energy              =    -922.12731453 Ry
     Harris-Foulkes estimate   =    -922.12731453 Ry
     estimated scf accuracy    <          1.5E-10 Ry

     iteration # 26     ecut=   120.00 Ry     beta= 0.70
     Davidson diagonalization with overlap
     ethr =  1.35E-13,  avg # of iterations =  4.2

     total cpu time spent up to now is      231.6 secs

     total energy              =    -922.12731453 Ry
     Harris-Foulkes estimate   =    -922.12731453 Ry
     estimated scf accuracy    <          8.9E-11 Ry

     iteration # 27     ecut=   120.00 Ry     beta= 0.70
     Davidson diagonalization with overlap
     ethr =  1.00E-13,  avg # of iterations =  1.5

     total cpu time spent up to now is      232.9 secs

     total energy              =    -922.12731453 Ry
     Harris-Foulkes estimate   =    -922.12731453 Ry
     estimated scf accuracy    <          2.9E-11 Ry

     iteration # 28     ecut=   120.00 Ry     beta= 0.70
     Davidson diagonalization with overlap
     ethr =  1.00E-13,  avg # of iterations =  4.0

     total cpu time spent up to now is      234.4 secs

     total energy              =    -922.12731453 Ry
     Harris-Foulkes estimate   =    -922.12731453 Ry
     estimated scf accuracy    <          2.6E-12 Ry

     iteration # 29     ecut=   120.00 Ry     beta= 0.70
     Davidson diagonalization with overlap
     ethr =  1.00E-13,  avg # of iterations =  1.0

     total cpu time spent up to now is      235.6 secs

     total energy              =    -922.12731453 Ry
     Harris-Foulkes estimate   =    -922.12731453 Ry
     estimated scf accuracy    <          7.9E-12 Ry

     iteration # 30     ecut=   120.00 Ry     beta= 0.70
     Davidson diagonalization with overlap
     ethr =  1.00E-13,  avg # of iterations =  1.0

     total cpu time spent up to now is      236.8 secs

     total energy              =    -922.12731453 Ry
     Harris-Foulkes estimate   =    -922.12731453 Ry
     estimated scf accuracy    <          9.9E-12 Ry

     iteration # 31     ecut=   120.00 Ry     beta= 0.70
     Davidson diagonalization with overlap
     ethr =  1.00E-13,  avg # of iterations =  1.0

     total cpu time spent up to now is      238.0 secs

     total energy              =    -922.12731453 Ry
     Harris-Foulkes estimate   =    -922.12731453 Ry
     estimated scf accuracy    <          1.1E-11 Ry

     iteration # 32     ecut=   120.00 Ry     beta= 0.70
     Davidson diagonalization with overlap
     ethr =  1.00E-13,  avg # of iterations =  1.0

     total cpu time spent up to now is      239.3 secs

     total energy              =    -922.12731453 Ry
     Harris-Foulkes estimate   =    -922.12731453 Ry
     estimated scf accuracy    <          1.4E-11 Ry

     iteration # 33     ecut=   120.00 Ry     beta= 0.70
     Davidson diagonalization with overlap
     ethr =  1.00E-13,  avg # of iterations =  1.0

     total cpu time spent up to now is      240.5 secs

     total energy              =    -922.12731453 Ry
     Harris-Foulkes estimate   =    -922.12731453 Ry
     estimated scf accuracy    <          1.7E-11 Ry

     iteration # 34     ecut=   120.00 Ry     beta= 0.70
     Davidson diagonalization with overlap
     ethr =  1.00E-13,  avg # of iterations =  1.0

     total cpu time spent up to now is      241.7 secs

     total energy              =    -922.12731453 Ry
     Harris-Foulkes estimate   =    -922.12731453 Ry
     estimated scf accuracy    <          1.7E-11 Ry

     iteration # 35     ecut=   120.00 Ry     beta= 0.70
     Davidson diagonalization with overlap
     ethr =  1.00E-13,  avg # of iterations =  1.0

     total cpu time spent up to now is      242.8 secs

     total energy              =    -922.12731453 Ry
     Harris-Foulkes estimate   =    -922.12731453 Ry
     estimated scf accuracy    <          6.2E-12 Ry

     iteration # 36     ecut=   120.00 Ry     beta= 0.70
     Davidson diagonalization with overlap
     ethr =  1.00E-13,  avg # of iterations =  1.0

     total cpu time spent up to now is      244.0 secs

     total energy              =    -922.12731453 Ry
     Harris-Foulkes estimate   =    -922.12731453 Ry
     estimated scf accuracy    <          4.4E-12 Ry

     iteration # 37     ecut=   120.00 Ry     beta= 0.70
     Davidson diagonalization with overlap
     ethr =  1.00E-13,  avg # of iterations =  1.0

     total cpu time spent up to now is      245.3 secs

     End of self-consistent calculation

          k = 0.0000 0.0000 0.0000 ( 27379 PWs)   bands (ev):

   -59.9870 -59.9851 -59.9763 -59.9743 -34.0232 -34.0209 -34.0141 -34.0086
   -33.9280 -33.8749 -33.8487 -33.8187 -33.8162 -33.7981 -33.7846 -33.7822
   -13.5508 -13.4275 -12.4648 -12.3353 -12.2514 -12.2126 -11.8332 -11.8288
   -11.6711 -11.6509  -0.4275  -0.4144  -0.3693  -0.2570  -0.0842   0.3511
     1.0482   1.0913   1.3270   1.3282   1.5618   1.5996   1.8488   1.8491
     1.8857   1.9843   2.0650   2.0715   2.1762   2.2614   2.3589   2.4906
     2.5049   2.8931   3.0123   3.0391   3.0951   3.3120   3.3446   3.4060

          k = 0.0000 0.2636 0.0000 ( 27396 PWs)   bands (ev):

   -59.9870 -59.9850 -59.9763 -59.9743 -34.0249 -34.0225 -34.0173 -34.0117
   -33.9276 -33.8745 -33.8486 -33.8185 -33.8161 -33.7981 -33.7846 -33.7822
   -13.4782 -13.3653 -12.4013 -12.3081 -12.2484 -12.1941 -11.8418 -11.8194
   -11.6430 -11.6182  -0.4732  -0.4599  -0.4062  -0.3009  -0.2504   0.0274
     0.2813   0.4617   0.5042   0.6508   1.1455   1.2894   1.3464   1.7886
     1.8433   2.0535   2.2042   2.3001   2.4632   2.5264   2.6675   2.7732
     3.0210   3.0282   3.0763   3.1944   3.2132   3.4904   3.5633   3.7033

          k = 0.3332 0.0000 0.0000 ( 27345 PWs)   bands (ev):

   -59.9826 -59.9807 -59.9772 -59.9753 -34.0173 -34.0150 -34.0118 -34.0075
   -33.9242 -33.8970 -33.8841 -33.8744 -33.8286 -33.8230 -33.8075 -33.7970
   -12.9746 -12.8333 -12.3628 -12.1957 -12.1861 -12.1632 -11.7722 -11.7619
   -11.7302 -11.6877  -0.9329  -0.8567  -0.1096  -0.1017   0.0177   0.3508
     0.4791   0.8612   0.8679   1.1647   1.1986   1.2344   1.6019   1.7385
     1.7486   1.9123   1.9890   2.0092   2.0898   2.1590   2.2459   2.2982
     2.3304   2.7352   3.0214   3.1025   3.1897   3.3772   3.5563   3.6221

          k = 0.3332 0.2636 0.0000 ( 27374 PWs)   bands (ev):

   -59.9826 -59.9806 -59.9772 -59.9753 -34.0193 -34.0169 -34.0145 -34.0102
   -33.9239 -33.8968 -33.8837 -33.8742 -33.8286 -33.8230 -33.8075 -33.7971
   -12.9114 -12.7862 -12.3213 -12.1925 -12.1703 -12.1474 -11.7593 -11.7402
   -11.6620 -11.6444  -0.9351  -0.8569  -0.1766  -0.1708  -0.1032   0.1499
     0.2518   0.3901   0.4361   0.6645   0.7211   0.9411   1.2806   1.3104
     1.4195   1.4587   1.5826   1.6780   1.8398   2.2815   2.5061   2.6975
     2.9712   2.9782   3.3606   3.5546   3.5814   3.7383   3.7835   3.7898

     highest occupied level (ev):     3.7898

!    total energy              =    -922.12731453 Ry
     Harris-Foulkes estimate   =    -922.12731453 Ry
     estimated scf accuracy    <          2.6E-13 Ry

     The total energy is the sum of the following terms:

     one-electron contribution =    -591.71371588 Ry
     hartree contribution      =     335.13685635 Ry
     xc contribution           =    -174.08970805 Ry
     ewald contribution        =    -491.33038548 Ry
     Dispersion Correction     =      -0.13036147 Ry

     convergence has been achieved in  37 iterations

     Forces acting on atoms (cartesian axes, Ry/au):

     atom    1 type  1   force =    -0.00000000    0.00030351    0.00009489
     atom    2 type  1   force =     0.00000000   -0.00030351   -0.00009489
     atom    3 type  1   force =     0.00000000   -0.00030351    0.00009489
     atom    4 type  1   force =     0.00000000    0.00030351   -0.00009489
     atom    5 type  2   force =     0.00000000   -0.00023750    0.00009553
     atom    6 type  2   force =     0.00000000    0.00023750   -0.00009553
     atom    7 type  2   force =     0.00000000    0.00023750    0.00009553
     atom    8 type  2   force =    -0.00000000   -0.00023750   -0.00009553
     atom    9 type  2   force =    -0.00000000    0.00031198    0.00005309
     atom   10 type  2   force =     0.00000000   -0.00031198   -0.00005309
     atom   11 type  2   force =     0.00000000   -0.00031198    0.00005309
     atom   12 type  2   force =     0.00000000    0.00026500   -0.00000000
     atom   13 type  2   force =     0.00000000   -0.00026500    0.00000000
     atom   14 type  2   force =    -0.00000000    0.00031198   -0.00005309

     Total force =     0.001099     Total SCF correction =     0.000001


     Computing stress (Cartesian axis) and pressure

          total   stress  (Ry/bohr**3)                   (kbar)     P=   -0.16
  -0.00000512   0.00000000   0.00000000         -0.75      0.00      0.00
   0.00000000   0.00000513   0.00000000          0.00      0.75      0.00
   0.00000000   0.00000000  -0.00000336          0.00      0.00     -0.49


     number of scf cycles    =   4
     number of bfgs steps    =   3

     enthalpy old            =    -922.1273102150 Ry
     enthalpy new            =    -922.1273145311 Ry

     CASE: enthalpy_new < enthalpy_old

     new trust radius        =       0.0025575174 bohr
     new conv_thr            =            1.0E-12 Ry

     new unit-cell volume =   1236.09837 a.u.^3 (   183.17088 Ang^3 )
     density =      3.29767 g/cm^3

CELL_PARAMETERS (alat=  6.68268247)
   1.000446973   0.000000000   0.000000000
   0.000000000   1.265042377   0.000000000
   0.000000000   0.000000000   3.272663908

ATOMIC_POSITIONS (crystal)
V       -0.000000000   0.382881485   0.648064059
V        0.500000002   0.617118519   0.851935946
V        0.500000002   0.617118519   0.148064058
V       -0.000000000   0.382881485   0.351935944
O        0.500000002   0.492242382   0.681329130
O        0.000000000   0.507757622   0.818670875
O        0.000000000   0.507757622   0.181329129
O        0.500000002   0.492242382   0.318670873
O       -0.000000000   0.029200566   0.354189652
O        0.500000002   0.970799438   0.145810351
O        0.500000002   0.970799438   0.854189653
O        0.500000002   0.509329637  -0.000000000
O       -0.000000000   0.490670367   0.500000002
O       -0.000000000   0.029200566   0.645810353



     Writing output data file v2o5.save/
     NEW-OLD atomic charge density approx. for the potential
     extrapolated charge  112.03598, renormalised to  112.00000

     total cpu time spent up to now is      249.4 secs

     Self-consistent Calculation

     iteration #  1     ecut=   120.00 Ry     beta= 0.70
     Davidson diagonalization with overlap
     ethr =  1.00E-06,  avg # of iterations =  3.0

     Threshold (ethr) on eigenvalues was too large:
     Diagonalizing with lowered threshold

     Davidson diagonalization with overlap
     ethr =  5.08E-08,  avg # of iterations =  4.0

     total cpu time spent up to now is      253.4 secs

     total energy              =    -922.12696933 Ry
     Harris-Foulkes estimate   =    -921.97118857 Ry
[...]
         3           V   tau(   3) = (   0.5001811   0.7830186   0.4843160  )
         4           V   tau(   4) = (   0.0000000   0.4862550   1.1511006  )
         5           O   tau(   5) = (   0.5001811   0.6246741   2.2285548  )
         6           O   tau(   6) = (   0.0000000   0.6445994   2.6776949  )
         7           O   tau(   7) = (   0.0000000   0.6445994   0.5931382  )
         8           O   tau(   8) = (   0.5001811   0.6246741   1.0422784  )
         9           O   tau(   9) = (   0.0000000   0.0389273   1.1589088  )
        10           O   tau(  10) = (   0.5001811   1.2303463   0.4765078  )
        11           O   tau(  11) = (   0.5001811   1.2303463   2.7943253  )
        12           O   tau(  12) = (   0.5001811   0.6457864   0.0000000  )
        13           O   tau(  13) = (  -0.0000000   0.6234872   1.6354166  )
        14           O   tau(  14) = (   0.0000000   0.0389273   2.1119244  )

     number of k points=     4
                       cart. coord. in units 2pi/alat
        k(    1) = (   0.0000000   0.0000000   0.0000000), wk =   0.2222222
        k(    2) = (   0.0000000   0.2626174   0.0000000), wk =   0.4444444
        k(    3) = (   0.3332127   0.0000000   0.0000000), wk =   0.4444444
        k(    4) = (   0.3332127   0.2626174   0.0000000), wk =   0.8888889

     Dense  grid:   220173 G-vectors     FFT dimensions: (  48,  60, 160)

     Estimated max dynamical RAM per process >      24.15 MB

     Estimated total dynamical RAM >     772.66 MB

     Initial potential from superposition of free atoms

     starting charge  111.99579, renormalised to  112.00000
     Starting wfcs are   80 randomized atomic wfcs

     total cpu time spent up to now is     1150.6 secs

     Self-consistent Calculation

     iteration #  1     ecut=   120.00 Ry     beta= 0.70
     Davidson diagonalization with overlap
     ethr =  1.00E-06,  avg # of iterations =  7.8

     total cpu time spent up to now is     1153.5 secs

     total energy              =    -917.54966343 Ry
     Harris-Foulkes estimate   =    -923.64466173 Ry
     estimated scf accuracy    <       7.65114595 Ry

     iteration #  2     ecut=   120.00 Ry     beta= 0.70
     Davidson diagonalization with overlap
     ethr =  6.83E-03,  avg # of iterations =  6.2

     total cpu time spent up to now is     1155.2 secs

     total energy              =    -908.09084643 Ry
     Harris-Foulkes estimate   =    -938.34930856 Ry
     estimated scf accuracy    <     136.12902467 Ry

     iteration #  3     ecut=   120.00 Ry     beta= 0.70
     Davidson diagonalization with overlap
     ethr =  6.83E-03,  avg # of iterations =  5.8

     total cpu time spent up to now is     1156.9 secs

     total energy              =    -921.91106308 Ry
     Harris-Foulkes estimate   =    -922.67373011 Ry
     estimated scf accuracy    <       2.57492613 Ry

     iteration #  4     ecut=   120.00 Ry     beta= 0.70
     Davidson diagonalization with overlap
     ethr =  2.30E-03,  avg # of iterations =  3.8

     total cpu time spent up to now is     1157.8 secs

     total energy              =    -922.06721264 Ry
     Harris-Foulkes estimate   =    -922.20151146 Ry
     estimated scf accuracy    <       0.85739723 Ry

     iteration #  5     ecut=   120.00 Ry     beta= 0.70
     Davidson diagonalization with overlap
     ethr =  7.66E-04,  avg # of iterations =  4.0

     total cpu time spent up to now is     1158.6 secs

     total energy              =    -922.00763983 Ry
     Harris-Foulkes estimate   =    -922.13060918 Ry
     estimated scf accuracy    <       0.42890765 Ry

     iteration #  6     ecut=   120.00 Ry     beta= 0.70
     Davidson diagonalization with overlap
     ethr =  3.83E-04,  avg # of iterations =  4.0

     total cpu time spent up to now is     1159.7 secs

     total energy              =    -922.13185500 Ry
     Harris-Foulkes estimate   =    -922.14680657 Ry
     estimated scf accuracy    <       0.15960288 Ry

     iteration #  7     ecut=   120.00 Ry     beta= 0.70
     Davidson diagonalization with overlap
     ethr =  1.43E-04,  avg # of iterations =  1.8

     total cpu time spent up to now is     1160.4 secs

     total energy              =    -922.10857463 Ry
     Harris-Foulkes estimate   =    -922.13424467 Ry
     estimated scf accuracy    <       0.12184702 Ry

     iteration #  8     ecut=   120.00 Ry     beta= 0.70
     Davidson diagonalization with overlap
     ethr =  1.09E-04,  avg # of iterations =  3.5

     total cpu time spent up to now is     1161.3 secs

     total energy              =    -922.12577940 Ry
     Harris-Foulkes estimate   =    -922.12645365 Ry
     estimated scf accuracy    <       0.00242430 Ry

     iteration #  9     ecut=   120.00 Ry     beta= 0.70
     Davidson diagonalization with overlap
     ethr =  2.16E-06,  avg # of iterations =  5.8

     total cpu time spent up to now is     1162.6 secs

     total energy              =    -922.12731242 Ry
     Harris-Foulkes estimate   =    -922.12764054 Ry
     estimated scf accuracy    <       0.00252308 Ry

     iteration # 10     ecut=   120.00 Ry     beta= 0.70
     Davidson diagonalization with overlap
     ethr =  2.16E-06,  avg # of iterations =  2.2

     total cpu time spent up to now is     1163.3 secs

     total energy              =    -922.12701720 Ry
     Harris-Foulkes estimate   =    -922.12737833 Ry
     estimated scf accuracy    <       0.00158819 Ry

     iteration # 11     ecut=   120.00 Ry     beta= 0.70
     Davidson diagonalization with overlap
     ethr =  1.42E-06,  avg # of iterations =  4.0

     total cpu time spent up to now is     1164.3 secs

     total energy              =    -922.12731277 Ry
     Harris-Foulkes estimate   =    -922.12736241 Ry
     estimated scf accuracy    <       0.00017470 Ry

     iteration # 12     ecut=   120.00 Ry     beta= 0.70
     Davidson diagonalization with overlap
     ethr =  1.56E-07,  avg # of iterations =  4.5

     total cpu time spent up to now is     1165.2 secs

     total energy              =    -922.12733493 Ry
     Harris-Foulkes estimate   =    -922.12733709 Ry
     estimated scf accuracy    <       0.00003804 Ry

     iteration # 13     ecut=   120.00 Ry     beta= 0.70
     Davidson diagonalization with overlap
     ethr =  3.40E-08,  avg # of iterations =  4.2

     total cpu time spent up to now is     1166.2 secs

     total energy              =    -922.12733917 Ry
     Harris-Foulkes estimate   =    -922.12734235 Ry
     estimated scf accuracy    <       0.00002684 Ry

     iteration # 14     ecut=   120.00 Ry     beta= 0.70
     Davidson diagonalization with overlap
     ethr =  2.40E-08,  avg # of iterations =  1.0

     total cpu time spent up to now is     1166.8 secs

     total energy              =    -922.12733705 Ry
     Harris-Foulkes estimate   =    -922.12733957 Ry
     estimated scf accuracy    <       0.00001766 Ry

     iteration # 15     ecut=   120.00 Ry     beta= 0.70
     Davidson diagonalization with overlap
     ethr =  1.58E-08,  avg # of iterations =  3.5

     total cpu time spent up to now is     1167.6 secs

     total energy              =    -922.12733866 Ry
     Harris-Foulkes estimate   =    -922.12733887 Ry
     estimated scf accuracy    <       0.00000169 Ry

     iteration # 16     ecut=   120.00 Ry     beta= 0.70
     Davidson diagonalization with overlap
     ethr =  1.51E-09,  avg # of iterations =  5.5

     total cpu time spent up to now is     1168.8 secs

     total energy              =    -922.12733958 Ry
     Harris-Foulkes estimate   =    -922.12733966 Ry
     estimated scf accuracy    <       0.00000118 Ry

     iteration # 17     ecut=   120.00 Ry     beta= 0.70
     Davidson diagonalization with overlap
     ethr =  1.05E-09,  avg # of iterations =  1.0

     total cpu time spent up to now is     1169.5 secs

     total energy              =    -922.12733938 Ry
     Harris-Foulkes estimate   =    -922.12733959 Ry
     estimated scf accuracy    <       0.00000098 Ry

     iteration # 18     ecut=   120.00 Ry     beta= 0.70
     Davidson diagonalization with overlap
     ethr =  8.77E-10,  avg # of iterations =  3.0

     total cpu time spent up to now is     1170.3 secs

     total energy              =    -922.12733951 Ry
     Harris-Foulkes estimate   =    -922.12733951 Ry
     estimated scf accuracy    <       0.00000008 Ry

     iteration # 19     ecut=   120.00 Ry     beta= 0.70
     Davidson diagonalization with overlap
     ethr =  7.34E-11,  avg # of iterations =  4.0

     total cpu time spent up to now is     1171.2 secs

     total energy              =    -922.12733950 Ry
     Harris-Foulkes estimate   =    -922.12733951 Ry
     estimated scf accuracy    <       0.00000010 Ry

     iteration # 20     ecut=   120.00 Ry     beta= 0.70
     Davidson diagonalization with overlap
     ethr =  7.34E-11,  avg # of iterations =  2.2

     total cpu time spent up to now is     1171.9 secs

     total energy              =    -922.12733950 Ry
     Harris-Foulkes estimate   =    -922.12733950 Ry
     estimated scf accuracy    <       0.00000007 Ry

     iteration # 21     ecut=   120.00 Ry     beta= 0.70
     Davidson diagonalization with overlap
     ethr =  5.85E-11,  avg # of iterations =  2.2

     total cpu time spent up to now is     1172.5 secs

     total energy              =    -922.12733949 Ry
     Harris-Foulkes estimate   =    -922.12733950 Ry
     estimated scf accuracy    <       0.00000004 Ry

     iteration # 22     ecut=   120.00 Ry     beta= 0.70
     Davidson diagonalization with overlap
     ethr =  3.57E-11,  avg # of iterations =  4.0

     total cpu time spent up to now is     1173.5 secs

     total energy              =    -922.12733950 Ry
     Harris-Foulkes estimate   =    -922.12733950 Ry
     estimated scf accuracy    <          4.1E-09 Ry

     iteration # 23     ecut=   120.00 Ry     beta= 0.70
     Davidson diagonalization with overlap
     ethr =  3.62E-12,  avg # of iterations =  5.0

     total cpu time spent up to now is     1174.5 secs

     total energy              =    -922.12733950 Ry
     Harris-Foulkes estimate   =    -922.12733950 Ry
     estimated scf accuracy    <          2.2E-09 Ry

     iteration # 24     ecut=   120.00 Ry     beta= 0.70
     Davidson diagonalization with overlap
     ethr =  1.94E-12,  avg # of iterations =  2.2

     total cpu time spent up to now is     1175.2 secs

     total energy              =    -922.12733950 Ry
     Harris-Foulkes estimate   =    -922.12733950 Ry
     estimated scf accuracy    <          1.9E-09 Ry

     iteration # 25     ecut=   120.00 Ry     beta= 0.70
     Davidson diagonalization with overlap
     ethr =  1.68E-12,  avg # of iterations =  4.0

     total cpu time spent up to now is     1176.0 secs

     total energy              =    -922.12733950 Ry
     Harris-Foulkes estimate   =    -922.12733950 Ry
     estimated scf accuracy    <          1.9E-10 Ry

     iteration # 26     ecut=   120.00 Ry     beta= 0.70
     Davidson diagonalization with overlap
     ethr =  1.66E-13,  avg # of iterations =  4.5

     total cpu time spent up to now is     1177.2 secs

     total energy              =    -922.12733950 Ry
     Harris-Foulkes estimate   =    -922.12733950 Ry
     estimated scf accuracy    <          1.1E-12 Ry

     iteration # 27     ecut=   120.00 Ry     beta= 0.70
     Davidson diagonalization with overlap
     ethr =  1.00E-13,  avg # of iterations =  1.0

     total cpu time spent up to now is     1177.8 secs

     total energy              =    -922.12733950 Ry
     Harris-Foulkes estimate   =    -922.12733950 Ry
     estimated scf accuracy    <          3.4E-12 Ry

     iteration # 28     ecut=   120.00 Ry     beta= 0.70
     Davidson diagonalization with overlap
     ethr =  1.00E-13,  avg # of iterations =  1.0

     total cpu time spent up to now is     1178.4 secs

     total energy              =    -922.12733950 Ry
     Harris-Foulkes estimate   =    -922.12733950 Ry
     estimated scf accuracy    <          4.5E-12 Ry

     iteration # 29     ecut=   120.00 Ry     beta= 0.70
     Davidson diagonalization with overlap
     ethr =  1.00E-13,  avg # of iterations =  1.0

     total cpu time spent up to now is     1179.1 secs

     total energy              =    -922.12733950 Ry
     Harris-Foulkes estimate   =    -922.12733950 Ry
     estimated scf accuracy    <          2.7E-12 Ry

     iteration # 30     ecut=   120.00 Ry     beta= 0.70
     Davidson diagonalization with overlap
     ethr =  1.00E-13,  avg # of iterations =  1.0

     total cpu time spent up to now is     1179.7 secs

     total energy              =    -922.12733950 Ry
     Harris-Foulkes estimate   =    -922.12733950 Ry
     estimated scf accuracy    <          2.1E-12 Ry

     iteration # 31     ecut=   120.00 Ry     beta= 0.70
     Davidson diagonalization with overlap
     ethr =  1.00E-13,  avg # of iterations =  1.0

     total cpu time spent up to now is     1180.3 secs

     End of self-consistent calculation

          k = 0.0000 0.0000 0.0000 ( 27531 PWs)   bands (ev):

   -60.0212 -60.0192 -60.0104 -60.0084 -34.0579 -34.0555 -34.0486 -34.0431
   -33.9626 -33.9093 -33.8832 -33.8535 -33.8511 -33.8324 -33.8194 -33.8169
   -13.5893 -13.4666 -12.5004 -12.3731 -12.2897 -12.2497 -11.8643 -11.8611
   -11.7024 -11.6839  -0.4708  -0.4578  -0.4054  -0.2993  -0.1203   0.3071
     1.0005   1.0547   1.2853   1.2904   1.5204   1.5591   1.8043   1.8146
     1.8386   1.9444   2.0278   2.0400   2.1404   2.2304   2.3282   2.4488
     2.4762   2.8483   2.9812   3.0082   3.0598   3.2789   3.3040   3.3713

          k = 0.0000 0.2626 0.0000 ( 27540 PWs)   bands (ev):

   -60.0211 -60.0192 -60.0104 -60.0084 -34.0594 -34.0570 -34.0517 -34.0461
   -33.9622 -33.9089 -33.8832 -33.8534 -33.8509 -33.8324 -33.8194 -33.8169
   -13.5195 -13.4069 -12.4398 -12.3475 -12.2868 -12.2316 -11.8740 -11.8512
   -11.6769 -11.6514  -0.5147  -0.5015  -0.4408  -0.3419  -0.2848   0.0001
     0.2460   0.4305   0.4792   0.6220   1.1237   1.2571   1.3146   1.7588
     1.8134   2.0175   2.1677   2.2630   2.4241   2.4912   2.6302   2.7387
     2.9863   2.9925   3.0309   3.1532   3.1738   3.4477   3.5208   3.6578

          k = 0.3332 0.0000 0.0000 ( 27483 PWs)   bands (ev):

   -60.0167 -60.0148 -60.0113 -60.0094 -34.0520 -34.0496 -34.0463 -34.0420
   -33.9590 -33.9318 -33.9187 -33.9093 -33.8633 -33.8578 -33.8421 -33.8314
   -13.0126 -12.8723 -12.3986 -12.2354 -12.2251 -12.2007 -11.8029 -11.7940
   -11.7595 -11.7197  -0.9737  -0.8969  -0.1446  -0.1422  -0.0187   0.3127
     0.4402   0.8181   0.8238   1.1226   1.1592   1.1970   1.5631   1.6998
     1.7134   1.8704   1.9400   1.9778   2.0430   2.1306   2.1983   2.2568
     2.2990   2.6953   2.9879   3.0729   3.1573   3.3465   3.5230   3.5845

          k = 0.3332 0.2626 0.0000 ( 27508 PWs)   bands (ev):

   -60.0167 -60.0147 -60.0113 -60.0094 -34.0538 -34.0514 -34.0489 -34.0445
   -33.9587 -33.9316 -33.9184 -33.9090 -33.8632 -33.8578 -33.8421 -33.8315
   -12.9519 -12.8272 -12.3590 -12.2325 -12.2098 -12.1853 -11.7921 -11.7726
   -11.6954 -11.6770  -0.9758  -0.8972  -0.2143  -0.2041  -0.1370   0.1210
     0.2182   0.3551   0.4075   0.6363   0.6957   0.9012   1.2585   1.2764
     1.3846   1.4294   1.5536   1.6468   1.8051   2.2449   2.4673   2.6625
     2.9284   2.9420   3.3151   3.5115   3.5382   3.6944   3.7427   3.7492

     highest occupied level (ev):     3.7492

!    total energy              =    -922.12733950 Ry
     Harris-Foulkes estimate   =    -922.12733950 Ry
     estimated scf accuracy    <          3.3E-13 Ry

     The total energy is the sum of the following terms:

     one-electron contribution =    -594.20028668 Ry
     hartree contribution      =     336.23236137 Ry
     xc contribution           =    -174.08962007 Ry
     ewald contribution        =    -489.93986723 Ry
     Dispersion Correction     =      -0.12992688 Ry

     convergence has been achieved in  31 iterations

     Forces acting on atoms (cartesian axes, Ry/au):

     atom    1 type  1   force =     0.00000000   -0.00001204   -0.00000242
     atom    2 type  1   force =     0.00000000    0.00001204    0.00000242
     atom    3 type  1   force =     0.00000000    0.00001204   -0.00000242
     atom    4 type  1   force =     0.00000000   -0.00001204    0.00000242
     atom    5 type  2   force =     0.00000000    0.00000319   -0.00000974
     atom    6 type  2   force =     0.00000000   -0.00000319    0.00000974
     atom    7 type  2   force =     0.00000000   -0.00000319   -0.00000974
     atom    8 type  2   force =     0.00000000    0.00000319    0.00000974
     atom    9 type  2   force =     0.00000000    0.00001774   -0.00000681
     atom   10 type  2   force =    -0.00000000   -0.00001774    0.00000681
     atom   11 type  2   force =     0.00000000   -0.00001774   -0.00000681
     atom   12 type  2   force =    -0.00000000    0.00000367    0.00000000
     atom   13 type  2   force =     0.00000000   -0.00000367   -0.00000000
     atom   14 type  2   force =     0.00000000    0.00001774    0.00000681

     Total force =     0.000050     Total SCF correction =     0.000002


     Computing stress (Cartesian axis) and pressure

          total   stress  (Ry/bohr**3)                   (kbar)     P=   -0.01
  -0.00000002   0.00000000   0.00000000         -0.00      0.00      0.00
   0.00000000  -0.00000016   0.00000000          0.00     -0.02      0.00
   0.00000000   0.00000000   0.00000004          0.00      0.00      0.01


     Writing output data file v2o5.save/

     init_run     :      2.32s CPU      2.36s WALL (       2 calls)
     electrons    :   1074.07s CPU   1085.40s WALL (      28 calls)
     update_pot   :     25.38s CPU     25.42s WALL (      26 calls)
     forces       :     26.25s CPU     26.47s WALL (      28 calls)
     stress       :     41.00s CPU     41.08s WALL (      28 calls)

     Called by init_run:
     wfcinit      :      1.01s CPU      1.03s WALL (       2 calls)
     potinit      :      0.42s CPU      0.42s WALL (       2 calls)
     hinit0       :      0.79s CPU      0.80s WALL (       2 calls)

     Called by electrons:
     c_bands      :   1009.16s CPU   1018.74s WALL (     825 calls)
     sum_band     :     51.02s CPU     51.74s WALL (     825 calls)
     v_of_rho     :      7.88s CPU      8.39s WALL (     832 calls)
     mix_rho      :      4.26s CPU      4.40s WALL (     825 calls)

     Called by c_bands:
     init_us_2    :     14.37s CPU     14.69s WALL (    6832 calls)
     cegterg      :    964.10s CPU    973.03s WALL (    3300 calls)

     Called by sum_band:

     Called by *egterg:
     h_psi        :    577.54s CPU    582.57s WALL (   12914 calls)
     g_psi        :      1.81s CPU      1.81s WALL (    9606 calls)
     cdiaghg      :     93.44s CPU     95.78s WALL (   12718 calls)

     Called by h_psi:
     h_psi:pot    :    575.76s CPU    580.72s WALL (   12914 calls)
     h_psi:calbec :    214.73s CPU    216.56s WALL (   12914 calls)
     vloc_psi     :    202.96s CPU    205.78s WALL (   12914 calls)
     add_vuspsi   :    158.00s CPU    158.33s WALL (   12914 calls)

     General routines
     calbec       :    227.41s CPU    229.36s WALL (   13474 calls)
     fft          :      7.49s CPU      7.90s WALL (    9039 calls)
     ffts         :      0.66s CPU      0.68s WALL (     825 calls)
     fftw         :    220.32s CPU    223.29s WALL ( 1134346 calls)

     Parallel routines
     fft_scatt_xy :     17.85s CPU     18.09s WALL ( 1144210 calls)
     fft_scatt_yz :    128.57s CPU    130.67s WALL ( 1144210 calls)

     PWSCF        :  19m29.86s CPU  19m41.83s WALL


   This run was terminated on:  23:11:11  17May2024            

=------------------------------------------------------------------------------=
   JOB DONE.
=------------------------------------------------------------------------------=
