
     Program PWSCF v.6.4.1 starts on 17May2024 at 20:54:51 

     This program is part of the open-source Quantum ESPRESSO suite
     for quantum simulation of materials; please cite
         "P. Giannozzi et al., J. Phys.:Condens. Matter 21 395502 (2009);
         "P. Giannozzi et al., J. Phys.:Condens. Matter 29 465901 (2017);
          URL http://www.quantum-espresso.org", 
     in publications or presentations arising from this work. More details at
     http://www.quantum-espresso.org/quote

     Parallel version (MPI), running on    32 processors

     MPI processes distributed on     1 nodes
     R & G space division:  proc/nbgrp/npool/nimage =      32
     Reading input from v2o5.vc-rlx.in

     Current dimensions of program PWSCF are:
     Max number of different atomic species (ntypx) = 10
     Max number of k-points (npk) =  40000
     Max angular momentum in pseudopotentials (lmaxx) =  3

     -------------------------------------------------
     Parameters for Dispersion (Grimme-D2) Correction:
     -------------------------------------------------
       atom      VdW radius       C_6     

        V          2.952        374.666
        O          2.536         24.284

     Subspace diagonalization in iterative solution of the eigenvalue problem:
     one sub-group per band group will be used
     ELPA distributed-memory algorithm (size of sub-group:  4*  4 procs)


     Parallelization info
     --------------------
     sticks:   dense  smooth     PW     G-vecs:    dense   smooth      PW
     Min          27      27      7                 1831     1831     263
     Max          28      28      8                 1842     1842     278
     Sum         893     893    243                58811    58811    8653



     bravais-lattice index     =            8
     lattice parameter (alat)  =       6.6827  a.u.
     unit-cell volume          =    1233.5773 (a.u.)^3
     number of atoms/cell      =           14
     number of atomic types    =            2
     number of electrons       =       112.00
     number of Kohn-Sham states=           56
     kinetic-energy cutoff     =      50.0000  Ry
     charge density cutoff     =     200.0000  Ry
     convergence threshold     =      1.0E-10
     mixing beta               =       0.7000
     number of iterations used =            8  plain     mixing
     Exchange-correlation      = PBE ( 1  4  3  4 0 0)
     nstep                     =          500


     celldm(1)=   6.682682  celldm(2)=   1.263659  celldm(3)=   3.271025
     celldm(4)=   0.000000  celldm(5)=   0.000000  celldm(6)=   0.000000

     crystal axes: (cart. coord. in units of alat)
               a(1) = (   1.000000   0.000000   0.000000 )  
               a(2) = (   0.000000   1.263659   0.000000 )  
               a(3) = (   0.000000   0.000000   3.271025 )  

     reciprocal axes: (cart. coord. in units 2 pi/alat)
               b(1) = (  1.000000  0.000000  0.000000 )  
               b(2) = (  0.000000  0.791352  0.000000 )  
               b(3) = (  0.000000  0.000000  0.305715 )  


     PseudoPot. # 1 for V  read from file:
     /home/mpicuntureo/pseudos/v.nc.upf
     MD5 check sum: 40fb93c06b4f9d8c28c5ccd071294a04
     Pseudo is Norm-conserving + core correction, Zval = 13.0
     Generated using ONCVPSP code by D. R. Hamann
     Using radial grid of 1536 points,  6 beta functions with: 
                l(1) =   0
                l(2) =   0
                l(3) =   1
                l(4) =   1
                l(5) =   2
                l(6) =   2

     PseudoPot. # 2 for O  read from file:
     /home/mpicuntureo/pseudos/o.nc.upf
     MD5 check sum: 3e3f909f7470e8921608ab6b1f57bbae
     Pseudo is Norm-conserving + core correction, Zval =  6.0
     Generated using ONCVPSP code by D. R. Hamann
     Using radial grid of  936 points,  5 beta functions with: 
                l(1) =   0
                l(2) =   0
                l(3) =   1
                l(4) =   1
                l(5) =   2

     atomic species   valence    mass     pseudopotential
        V             13.00    50.94150     V ( 1.00)
        O              6.00    15.99940     O ( 1.00)

      8 Sym. Ops., with inversion, found ( 4 have fractional translation)



   Cartesian axes

     site n.     atom                  positions (alat units)
         1           V   tau(   1) = (   0.0000000   0.4838420   2.1198804  )
         2           V   tau(   2) = (   0.5000000   0.7798175   2.7866567  )
         3           V   tau(   3) = (   0.5000000   0.7798175   0.4843680  )
         4           V   tau(   4) = (   0.0000000   0.4838420   1.1511443  )
         5           O   tau(   5) = (   0.5000000   0.6221939   2.2285187  )
         6           O   tau(   6) = (   0.0000000   0.6414656   2.6780184  )
         7           O   tau(   7) = (   0.0000000   0.6414656   0.5930063  )
         8           O   tau(   8) = (   0.5000000   0.6221939   1.0425060  )
         9           O   tau(   9) = (   0.0000000   0.0364742   1.1584929  )
        10           O   tau(  10) = (   0.5000000   1.2271853   0.4770194  )
        11           O   tau(  11) = (   0.5000000   1.2271853   2.7940053  )
        12           O   tau(  12) = (   0.5000000   0.6433842   0.0000000  )
        13           O   tau(  13) = (   0.0000000   0.6202753   1.6355124  )
        14           O   tau(  14) = (   0.0000000   0.0364742   2.1125318  )

     number of k points=     4
                       cart. coord. in units 2pi/alat
        k(    1) = (   0.0000000   0.0000000   0.0000000), wk =   0.2222222
        k(    2) = (   0.0000000   0.2637841   0.0000000), wk =   0.4444444
        k(    3) = (   0.3333333   0.0000000   0.0000000), wk =   0.4444444
        k(    4) = (   0.3333333   0.2637841   0.0000000), wk =   0.8888889

     Dense  grid:    58811 G-vectors     FFT dimensions: (  32,  40, 100)

     Estimated max dynamical RAM per process >       9.58 MB

     Estimated total dynamical RAM >     306.72 MB

     Check: negative core charge=   -0.000166

     Initial potential from superposition of free atoms

     starting charge  111.99579, renormalised to  112.00000
     Starting wfcs are   80 randomized atomic wfcs

     total cpu time spent up to now is        0.7 secs

     Self-consistent Calculation

     iteration #  1     ecut=    50.00 Ry     beta= 0.70
     Davidson diagonalization with overlap
     ethr =  1.00E-02,  avg # of iterations =  2.0

     total cpu time spent up to now is        1.1 secs

     total energy              =    -916.86697166 Ry
     Harris-Foulkes estimate   =    -922.85981965 Ry
     estimated scf accuracy    <       7.54378030 Ry

     iteration #  2     ecut=    50.00 Ry     beta= 0.70
     Davidson diagonalization with overlap
     ethr =  6.74E-03,  avg # of iterations =  6.0

     total cpu time spent up to now is        2.1 secs

     total energy              =    -907.40441290 Ry
     Harris-Foulkes estimate   =    -936.49304025 Ry
     estimated scf accuracy    <     128.37654812 Ry

     iteration #  3     ecut=    50.00 Ry     beta= 0.70
     Davidson diagonalization with overlap
     ethr =  6.74E-03,  avg # of iterations =  5.5

     total cpu time spent up to now is        3.1 secs

     total energy              =    -921.18218614 Ry
     Harris-Foulkes estimate   =    -921.90083074 Ry
     estimated scf accuracy    <       2.56040628 Ry

     iteration #  4     ecut=    50.00 Ry     beta= 0.70
     Davidson diagonalization with overlap
     ethr =  2.29E-03,  avg # of iterations =  3.5

     total cpu time spent up to now is        3.6 secs

     total energy              =    -921.28816973 Ry
     Harris-Foulkes estimate   =    -921.43331915 Ry
     estimated scf accuracy    <       0.94954575 Ry

     iteration #  5     ecut=    50.00 Ry     beta= 0.70
     Davidson diagonalization with overlap
     ethr =  8.48E-04,  avg # of iterations =  4.0

     total cpu time spent up to now is        4.1 secs

     total energy              =    -921.21262271 Ry
     Harris-Foulkes estimate   =    -921.34952032 Ry
     estimated scf accuracy    <       0.47126235 Ry

     iteration #  6     ecut=    50.00 Ry     beta= 0.70
     Davidson diagonalization with overlap
     ethr =  4.21E-04,  avg # of iterations =  4.0

     total cpu time spent up to now is        4.7 secs

     total energy              =    -921.35713702 Ry
     Harris-Foulkes estimate   =    -921.37061027 Ry
     estimated scf accuracy    <       0.17502602 Ry

     iteration #  7     ecut=    50.00 Ry     beta= 0.70
     Davidson diagonalization with overlap
     ethr =  1.56E-04,  avg # of iterations =  1.8

     total cpu time spent up to now is        5.1 secs

     total energy              =    -921.33046374 Ry
     Harris-Foulkes estimate   =    -921.35910215 Ry
     estimated scf accuracy    <       0.13991340 Ry

     iteration #  8     ecut=    50.00 Ry     beta= 0.70
     Davidson diagonalization with overlap
     ethr =  1.25E-04,  avg # of iterations =  3.5

     total cpu time spent up to now is        5.6 secs

     total energy              =    -921.34645969 Ry
     Harris-Foulkes estimate   =    -921.34705710 Ry
     estimated scf accuracy    <       0.00178095 Ry

     iteration #  9     ecut=    50.00 Ry     beta= 0.70
     Davidson diagonalization with overlap
     ethr =  1.59E-06,  avg # of iterations =  5.8

     total cpu time spent up to now is        6.6 secs

     total energy              =    -921.34918083 Ry
     Harris-Foulkes estimate   =    -921.34943997 Ry
     estimated scf accuracy    <       0.00137599 Ry

     iteration # 10     ecut=    50.00 Ry     beta= 0.70
     Davidson diagonalization with overlap
     ethr =  1.23E-06,  avg # of iterations =  4.0

     total cpu time spent up to now is        7.1 secs

     total energy              =    -921.34922637 Ry
     Harris-Foulkes estimate   =    -921.34933150 Ry
     estimated scf accuracy    <       0.00062733 Ry

     iteration # 11     ecut=    50.00 Ry     beta= 0.70
     Davidson diagonalization with overlap
     ethr =  5.60E-07,  avg # of iterations =  2.5

     total cpu time spent up to now is        7.5 secs

     total energy              =    -921.34914206 Ry
     Harris-Foulkes estimate   =    -921.34924275 Ry
     estimated scf accuracy    <       0.00037808 Ry

     iteration # 12     ecut=    50.00 Ry     beta= 0.70
     Davidson diagonalization with overlap
     ethr =  3.38E-07,  avg # of iterations =  4.0

     total cpu time spent up to now is        8.1 secs

     total energy              =    -921.34922153 Ry
     Harris-Foulkes estimate   =    -921.34923553 Ry
     estimated scf accuracy    <       0.00005711 Ry

     iteration # 13     ecut=    50.00 Ry     beta= 0.70
     Davidson diagonalization with overlap
     ethr =  5.10E-08,  avg # of iterations =  4.2

     total cpu time spent up to now is        8.6 secs

     total energy              =    -921.34922360 Ry
     Harris-Foulkes estimate   =    -921.34922605 Ry
     estimated scf accuracy    <       0.00001869 Ry

     iteration # 14     ecut=    50.00 Ry     beta= 0.70
     Davidson diagonalization with overlap
     ethr =  1.67E-08,  avg # of iterations =  4.0

     total cpu time spent up to now is        9.2 secs

     total energy              =    -921.34922795 Ry
     Harris-Foulkes estimate   =    -921.34922800 Ry
     estimated scf accuracy    <       0.00000040 Ry

     iteration # 15     ecut=    50.00 Ry     beta= 0.70
     Davidson diagonalization with overlap
     ethr =  3.56E-10,  avg # of iterations =  4.8

     total cpu time spent up to now is        9.8 secs

     total energy              =    -921.34922796 Ry
     Harris-Foulkes estimate   =    -921.34922803 Ry
     estimated scf accuracy    <       0.00000036 Ry

     iteration # 16     ecut=    50.00 Ry     beta= 0.70
     Davidson diagonalization with overlap
     ethr =  3.18E-10,  avg # of iterations =  3.5

     total cpu time spent up to now is       10.3 secs

     total energy              =    -921.34922796 Ry
     Harris-Foulkes estimate   =    -921.34922798 Ry
     estimated scf accuracy    <       0.00000011 Ry

     iteration # 17     ecut=    50.00 Ry     beta= 0.70
     Davidson diagonalization with overlap
     ethr =  9.90E-11,  avg # of iterations =  4.0

     total cpu time spent up to now is       10.9 secs

     total energy              =    -921.34922799 Ry
     Harris-Foulkes estimate   =    -921.34922799 Ry
     estimated scf accuracy    <          3.8E-09 Ry

     iteration # 18     ecut=    50.00 Ry     beta= 0.70
     Davidson diagonalization with overlap
     ethr =  3.39E-12,  avg # of iterations =  4.8

     total cpu time spent up to now is       11.5 secs

     total energy              =    -921.34922799 Ry
     Harris-Foulkes estimate   =    -921.34922799 Ry
     estimated scf accuracy    <          6.7E-09 Ry

     iteration # 19     ecut=    50.00 Ry     beta= 0.70
     Davidson diagonalization with overlap
     ethr =  3.39E-12,  avg # of iterations =  3.2

     total cpu time spent up to now is       12.0 secs

     total energy              =    -921.34922799 Ry
     Harris-Foulkes estimate   =    -921.34922799 Ry
     estimated scf accuracy    <          2.2E-09 Ry

     iteration # 20     ecut=    50.00 Ry     beta= 0.70
     Davidson diagonalization with overlap
     ethr =  2.00E-12,  avg # of iterations =  4.2

     total cpu time spent up to now is       12.6 secs

     total energy              =    -921.34922799 Ry
     Harris-Foulkes estimate   =    -921.34922799 Ry
     estimated scf accuracy    <          1.7E-10 Ry

     iteration # 21     ecut=    50.00 Ry     beta= 0.70
     Davidson diagonalization with overlap
     ethr =  1.55E-13,  avg # of iterations =  4.5

     total cpu time spent up to now is       13.1 secs

     total energy              =    -921.34922799 Ry
     Harris-Foulkes estimate   =    -921.34922799 Ry
     estimated scf accuracy    <          2.6E-10 Ry

     iteration # 22     ecut=    50.00 Ry     beta= 0.70
     Davidson diagonalization with overlap
     ethr =  1.55E-13,  avg # of iterations =  3.2

     total cpu time spent up to now is       13.5 secs

     total energy              =    -921.34922799 Ry
     Harris-Foulkes estimate   =    -921.34922799 Ry
     estimated scf accuracy    <          1.3E-10 Ry

     iteration # 23     ecut=    50.00 Ry     beta= 0.70
     Davidson diagonalization with overlap
     ethr =  1.18E-13,  avg # of iterations =  3.5

     total cpu time spent up to now is       14.0 secs

     End of self-consistent calculation

          k = 0.0000 0.0000 0.0000 (  7409 PWs)   bands (ev):

   -60.3062 -60.3059 -60.2955 -60.2885 -34.4160 -34.4135 -34.4061 -34.4012
   -34.3278 -34.2773 -34.2525 -34.2236 -34.2205 -34.2028 -34.1908 -34.1878
   -13.6520 -13.5346 -12.5609 -12.4469 -12.3594 -12.3112 -11.9251 -11.9213
   -11.7610 -11.7444  -0.4330  -0.4300  -0.3691  -0.2631  -0.0587   0.3589
     1.0646   1.1316   1.3412   1.3642   1.6104   1.6427   1.8864   1.9013
     1.9262   2.0184   2.1182   2.1371   2.2378   2.3314   2.4032   2.5452
     2.5456   2.9251   3.0699   3.0884   3.1288   3.3653   3.3871   3.4649

          k = 0.0000 0.2638 0.0000 (  7385 PWs)   bands (ev):

   -60.3061 -60.3042 -60.2922 -60.2860 -34.4169 -34.4147 -34.4090 -34.4037
   -34.3270 -34.2768 -34.2522 -34.2229 -34.2205 -34.2029 -34.1904 -34.1882
   -13.5828 -13.4746 -12.4998 -12.4208 -12.3547 -12.2927 -11.9321 -11.9088
   -11.7343 -11.7081  -0.4854  -0.4686  -0.4010  -0.3019  -0.2273   0.0443
     0.2988   0.4861   0.5273   0.6858   1.1684   1.3316   1.3908   1.8288
     1.8847   2.1170   2.2736   2.3265   2.4995   2.5907   2.7160   2.8318
     3.0656   3.0721   3.1129   3.2331   3.2479   3.5572   3.6168   3.7721

          k = 0.3333 0.0000 0.0000 (  7381 PWs)   bands (ev):

   -60.2993 -60.2976 -60.2926 -60.2899 -34.4097 -34.4077 -34.4042 -34.4003
   -34.3244 -34.2981 -34.2853 -34.2762 -34.2326 -34.2272 -34.2124 -34.2018
   -13.0794 -12.9467 -12.4555 -12.3157 -12.3024 -12.2650 -11.8626 -11.8535
   -11.8174 -11.7798  -0.9346  -0.8615  -0.1023  -0.0791   0.0539   0.3538
     0.4976   0.8770   0.8942   1.1976   1.2379   1.2880   1.6492   1.7717
     1.7977   1.9458   2.0207   2.0613   2.1261   2.2011   2.2789   2.3384
     2.3853   2.7752   3.0754   3.1541   3.2416   3.4391   3.6095   3.6695

          k = 0.3333 0.2638 0.0000 (  7354 PWs)   bands (ev):

   -60.2955 -60.2940 -60.2899 -60.2895 -34.4111 -34.4088 -34.4062 -34.4018
   -34.3239 -34.2982 -34.2850 -34.2766 -34.2324 -34.2265 -34.2120 -34.2016
   -13.0201 -12.9024 -12.4192 -12.3127 -12.2841 -12.2478 -11.8481 -11.8289
   -11.7525 -11.7329  -0.9395  -0.8624  -0.1717  -0.1389  -0.0686   0.1731
     0.2606   0.4113   0.4619   0.6954   0.7527   0.9600   1.3085   1.3418
     1.4513   1.4972   1.6156   1.7263   1.8802   2.3389   2.5575   2.7609
     3.0170   3.0211   3.4246   3.6103   3.6496   3.8093   3.8385   3.8534

     highest occupied level (ev):     3.8534

!    total energy              =    -921.34922799 Ry
     Harris-Foulkes estimate   =    -921.34922799 Ry
     estimated scf accuracy    <          3.2E-11 Ry

     The total energy is the sum of the following terms:

     one-electron contribution =    -588.73336018 Ry
     hartree contribution      =     333.01984290 Ry
     xc contribution           =    -173.76406771 Ry
     ewald contribution        =    -491.74104701 Ry
     Dispersion Correction     =      -0.13059599 Ry

     convergence has been achieved in  23 iterations

     Forces acting on atoms (cartesian axes, Ry/au):

     atom    1 type  1   force =     0.00000000   -0.01118571   -0.00532056
     atom    2 type  1   force =     0.00000000    0.01118571    0.00532056
     atom    3 type  1   force =     0.00000000    0.01118571   -0.00532056
     atom    4 type  1   force =     0.00000000   -0.01118571    0.00532056
     atom    5 type  2   force =    -0.00000000    0.00327858    0.00342412
     atom    6 type  2   force =     0.00000000   -0.00327858   -0.00342412
     atom    7 type  2   force =     0.00000000   -0.00327858    0.00342412
     atom    8 type  2   force =    -0.00000000    0.00327858   -0.00342412
     atom    9 type  2   force =     0.00000000    0.01309300    0.00321137
     atom   10 type  2   force =     0.00000000   -0.01309300   -0.00321137
     atom   11 type  2   force =     0.00000000   -0.01309300    0.00321137
     atom   12 type  2   force =     0.00000000    0.00320020    0.00000000
     atom   13 type  2   force =     0.00000000   -0.00320020    0.00000000
     atom   14 type  2   force =     0.00000000    0.01309300   -0.00321137

     Total force =     0.038093     Total SCF correction =     0.000008


     Computing stress (Cartesian axis) and pressure

          total   stress  (Ry/bohr**3)                   (kbar)     P= -479.54
  -0.00324278   0.00000000   0.00000000       -477.03      0.00      0.00
   0.00000000  -0.00323269   0.00000000          0.00   -475.54      0.00
   0.00000000   0.00000000  -0.00330405          0.00      0.00   -486.04


     BFGS Geometry Optimization

     number of scf cycles    =   1
     number of bfgs steps    =   0

     enthalpy new            =    -921.3492279881 Ry

     new trust radius        =       0.5000000000 bohr
     new conv_thr            =            1.0E-10 Ry

     new unit-cell volume =    991.50814 a.u.^3 (   146.92635 Ang^3 )
     density =      4.11116 g/cm^3

CELL_PARAMETERS (alat=  6.68268247)
   0.930140102   0.000000000   0.000000000
   0.000000000   1.175655191   0.000000000
   0.000000000   0.000000000   3.038193782

ATOMIC_POSITIONS (crystal)
V        0.000000000   0.381748099   0.647868656
V        0.500000019   0.618251940   0.852131401
V        0.500000019   0.618251940   0.147868637
V        0.000000000   0.381748099   0.352131382
O        0.500000019   0.492709262   0.681425696
O        0.000000000   0.507290777   0.818574361
O        0.000000000   0.507290777   0.181425678
O        0.500000019   0.492709262   0.318574341
O        0.000000000   0.030199991   0.354294805
O        0.500000019   0.969800048   0.145705215
O        0.500000019   0.969800048   0.854294823
O        0.500000019   0.509470201   0.000000000
O        0.000000000   0.490529838   0.500000019
O        0.000000000   0.030199991   0.645705235



     Writing output data file v2o5.save/
     NEW-OLD atomic charge density approx. for the potential

     Check: negative core charge=   -0.000062
     extrapolated charge   84.65708, renormalised to  112.00000

     total cpu time spent up to now is       15.2 secs

     Self-consistent Calculation

     iteration #  1     ecut=    50.00 Ry     beta= 0.70
     Davidson diagonalization with overlap
     c_bands:  1 eigenvalues not converged
     c_bands:  1 eigenvalues not converged
     c_bands:  2 eigenvalues not converged
     ethr =  1.00E-06,  avg # of iterations = 19.8

     total cpu time spent up to now is       18.1 secs

     total energy              =    -729.24628126 Ry
     Harris-Foulkes estimate   =   -1063.35941527 Ry
     estimated scf accuracy    <     205.40132250 Ry

     iteration #  2     ecut=    50.00 Ry     beta= 0.70
     Davidson diagonalization with overlap
     ethr =  1.00E-02,  avg # of iterations =  7.8

     total cpu time spent up to now is       19.8 secs

     total energy              =    -848.57574405 Ry
     Harris-Foulkes estimate   =   -1176.32175952 Ry
     estimated scf accuracy    <     893.66006091 Ry

     iteration #  3     ecut=    50.00 Ry     beta= 0.70
     Davidson diagonalization with overlap
     ethr =  1.00E-02,  avg # of iterations =  7.5

     total cpu time spent up to now is       21.0 secs

     total energy              =    -934.09037135 Ry
     Harris-Foulkes estimate   =    -954.74954065 Ry
     estimated scf accuracy    <      83.40690351 Ry

     iteration #  4     ecut=    50.00 Ry     beta= 0.70
     Davidson diagonalization with overlap
     ethr =  1.00E-02,  avg # of iterations =  3.8

     total cpu time spent up to now is       21.7 secs

     total energy              =    -927.65033460 Ry
     Harris-Foulkes estimate   =    -937.45388903 Ry
     estimated scf accuracy    <      41.21637574 Ry

     iteration #  5     ecut=    50.00 Ry     beta= 0.70
     Davidson diagonalization with overlap
     ethr =  1.00E-02,  avg # of iterations =  2.0

     total cpu time spent up to now is       22.0 secs

     total energy              =    -922.43038377 Ry
     Harris-Foulkes estimate   =    -928.44913905 Ry
     estimated scf accuracy    <      22.53826108 Ry

     iteration #  6     ecut=    50.00 Ry     beta= 0.70
     Davidson diagonalization with overlap
     ethr =  1.00E-02,  avg # of iterations =  2.8

     negative rho (up, down):  2.085E-04 0.000E+00

     total cpu time spent up to now is       22.5 secs

     total energy              =    -921.97004803 Ry
     Harris-Foulkes estimate   =    -923.44515859 Ry
     estimated scf accuracy    <       8.87632933 Ry

     iteration #  7     ecut=    50.00 Ry     beta= 0.70
     Davidson diagonalization with overlap
     ethr =  7.93E-03,  avg # of iterations =  1.5

     negative rho (up, down):  7.064E-03 0.000E+00

     total cpu time spent up to now is       22.8 secs

     total energy              =    -920.33346063 Ry
     Harris-Foulkes estimate   =    -922.19716974 Ry
     estimated scf accuracy    <       5.92838081 Ry

     iteration #  8     ecut=    50.00 Ry     beta= 0.70
     Davidson diagonalization with overlap
     ethr =  5.29E-03,  avg # of iterations =  4.0

     total cpu time spent up to now is       23.4 secs

     total energy              =    -921.54065404 Ry
     Harris-Foulkes estimate   =    -921.56929896 Ry
     estimated scf accuracy    <       0.47037617 Ry

     iteration #  9     ecut=    50.00 Ry     beta= 0.70
     Davidson diagonalization with overlap
     ethr =  4.20E-04,  avg # of iterations =  4.2

     total cpu time spent up to now is       24.2 secs

     total energy              =    -921.89024060 Ry
     Harris-Foulkes estimate   =    -921.78710815 Ry
     estimated scf accuracy    <       1.20343026 Ry

     iteration # 10     ecut=    50.00 Ry     beta= 0.70
     Davidson diagonalization with overlap
     ethr =  4.20E-04,  avg # of iterations =  1.2

     total cpu time spent up to now is       24.5 secs

     total energy              =    -921.20238521 Ry
     Harris-Foulkes estimate   =    -921.90941293 Ry
     estimated scf accuracy    <       1.53226726 Ry

     iteration # 11     ecut=    50.00 Ry     beta= 0.70
     Davidson diagonalization with overlap
     ethr =  4.20E-04,  avg # of iterations =  4.0

     total cpu time spent up to now is       25.4 secs

     total energy              =    -921.50019818 Ry
     Harris-Foulkes estimate   =    -921.50117804 Ry
     estimated scf accuracy    <       0.09927891 Ry

     iteration # 12     ecut=    50.00 Ry     beta= 0.70
     Davidson diagonalization with overlap
     ethr =  8.86E-05,  avg # of iterations =  1.0

     total cpu time spent up to now is       25.8 secs

     total energy              =    -921.49239801 Ry
     Harris-Foulkes estimate   =    -921.50078339 Ry
     estimated scf accuracy    <       0.09757970 Ry

     iteration # 13     ecut=    50.00 Ry     beta= 0.70
     Davidson diagonalization with overlap
     ethr =  8.71E-05,  avg # of iterations =  2.8

     total cpu time spent up to now is       26.2 secs

     total energy              =    -921.49040794 Ry
     Harris-Foulkes estimate   =    -921.49819777 Ry
     estimated scf accuracy    <       0.08434970 Ry

     iteration # 14     ecut=    50.00 Ry     beta= 0.70
     Davidson diagonalization with overlap
     ethr =  7.53E-05,  avg # of iterations =  1.0

     total cpu time spent up to now is       26.5 secs

     total energy              =    -921.47288242 Ry
     Harris-Foulkes estimate   =    -921.49159872 Ry
     estimated scf accuracy    <       0.06593135 Ry

     iteration # 15     ecut=    50.00 Ry     beta= 0.70
     Davidson diagonalization with overlap
     ethr =  5.89E-05,  avg # of iterations =  3.8

     total cpu time spent up to now is       27.1 secs

     total energy              =    -921.48505044 Ry
     Harris-Foulkes estimate   =    -921.48723037 Ry
     estimated scf accuracy    <       0.01222756 Ry

     iteration # 16     ecut=    50.00 Ry     beta= 0.70
     Davidson diagonalization with overlap
     ethr =  1.09E-05,  avg # of iterations =  2.0

     total cpu time spent up to now is       27.5 secs

     total energy              =    -921.48243670 Ry
     Harris-Foulkes estimate   =    -921.48545398 Ry
     estimated scf accuracy    <       0.00659639 Ry

     iteration # 17     ecut=    50.00 Ry     beta= 0.70
     Davidson diagonalization with overlap
     ethr =  5.89E-06,  avg # of iterations =  4.0

     total cpu time spent up to now is       28.2 secs

     total energy              =    -921.48415037 Ry
     Harris-Foulkes estimate   =    -921.48550025 Ry
     estimated scf accuracy    <       0.00429906 Ry

     iteration # 18     ecut=    50.00 Ry     beta= 0.70
     Davidson diagonalization with overlap
     ethr =  3.84E-06,  avg # of iterations =  3.5

     total cpu time spent up to now is       28.7 secs

     total energy              =    -921.48442484 Ry
     Harris-Foulkes estimate   =    -921.48459174 Ry
     estimated scf accuracy    <       0.00050269 Ry

     iteration # 19     ecut=    50.00 Ry     beta= 0.70
     Davidson diagonalization with overlap
     ethr =  4.49E-07,  avg # of iterations =  4.2

     total cpu time spent up to now is       29.5 secs

     total energy              =    -921.48465721 Ry
     Harris-Foulkes estimate   =    -921.48469286 Ry
     estimated scf accuracy    <       0.00024899 Ry

     iteration # 20     ecut=    50.00 Ry     beta= 0.70
     Davidson diagonalization with overlap
     ethr =  2.22E-07,  avg # of iterations =  1.0

     total cpu time spent up to now is       29.8 secs

     total energy              =    -921.48460666 Ry
     Harris-Foulkes estimate   =    -921.48466268 Ry
     estimated scf accuracy    <       0.00016559 Ry

     iteration # 21     ecut=    50.00 Ry     beta= 0.70
     Davidson diagonalization with overlap
     ethr =  1.48E-07,  avg # of iterations =  4.0

     total cpu time spent up to now is       30.5 secs

     total energy              =    -921.48464248 Ry
     Harris-Foulkes estimate   =    -921.48466191 Ry
     estimated scf accuracy    <       0.00007554 Ry

     iteration # 22     ecut=    50.00 Ry     beta= 0.70
     Davidson diagonalization with overlap
     ethr =  6.74E-08,  avg # of iterations =  2.5

     total cpu time spent up to now is       30.9 secs

     total energy              =    -921.48463819 Ry
     Harris-Foulkes estimate   =    -921.48464586 Ry
     estimated scf accuracy    <       0.00002569 Ry

     iteration # 23     ecut=    50.00 Ry     beta= 0.70
     Davidson diagonalization with overlap
     ethr =  2.29E-08,  avg # of iterations =  4.0

     total cpu time spent up to now is       31.6 secs

     total energy              =    -921.48464545 Ry
     Harris-Foulkes estimate   =    -921.48464663 Ry
     estimated scf accuracy    <       0.00000412 Ry

     iteration # 24     ecut=    50.00 Ry     beta= 0.70
     Davidson diagonalization with overlap
     ethr =  3.68E-09,  avg # of iterations =  3.5

     total cpu time spent up to now is       32.0 secs

     total energy              =    -921.48464580 Ry
     Harris-Foulkes estimate   =    -921.48464589 Ry
     estimated scf accuracy    <       0.00000039 Ry

     iteration # 25     ecut=    50.00 Ry     beta= 0.70
     Davidson diagonalization with overlap
     ethr =  3.51E-10,  avg # of iterations =  4.5

     total cpu time spent up to now is       32.8 secs

     total energy              =    -921.48464597 Ry
     Harris-Foulkes estimate   =    -921.48464598 Ry
     estimated scf accuracy    <       0.00000004 Ry

     iteration # 26     ecut=    50.00 Ry     beta= 0.70
     Davidson diagonalization with overlap
     ethr =  3.41E-11,  avg # of iterations =  3.2

     total cpu time spent up to now is       33.2 secs

     total energy              =    -921.48464597 Ry
     Harris-Foulkes estimate   =    -921.48464598 Ry
     estimated scf accuracy    <       0.00000003 Ry

     iteration # 27     ecut=    50.00 Ry     beta= 0.70
     Davidson diagonalization with overlap
     ethr =  3.01E-11,  avg # of iterations =  3.2

     total cpu time spent up to now is       33.8 secs

     total energy              =    -921.48464597 Ry
     Harris-Foulkes estimate   =    -921.48464597 Ry
     estimated scf accuracy    <          1.2E-09 Ry

     iteration # 28     ecut=    50.00 Ry     beta= 0.70
     Davidson diagonalization with overlap
     ethr =  1.08E-12,  avg # of iterations =  4.8

     total cpu time spent up to now is       34.5 secs

     total energy              =    -921.48464597 Ry
     Harris-Foulkes estimate   =    -921.48464597 Ry
     estimated scf accuracy    <          2.7E-09 Ry

     iteration # 29     ecut=    50.00 Ry     beta= 0.70
     Davidson diagonalization with overlap
     ethr =  1.08E-12,  avg # of iterations =  1.0

     total cpu time spent up to now is       34.9 secs

     total energy              =    -921.48464597 Ry
     Harris-Foulkes estimate   =    -921.48464597 Ry
     estimated scf accuracy    <          2.0E-09 Ry

     iteration # 30     ecut=    50.00 Ry     beta= 0.70
     Davidson diagonalization with overlap
     ethr =  1.08E-12,  avg # of iterations =  4.0

     total cpu time spent up to now is       35.5 secs

     End of self-consistent calculation

          k = 0.0000 0.0000 0.0000 (  7409 PWs)   bands (ev):

   -56.7267 -56.7214 -56.6960 -56.6885 -31.2899 -31.2834 -31.2666 -31.2535
   -30.9259 -30.7936 -30.7301 -30.6528 -30.6457 -30.6007 -30.5707 -30.5635
   -11.7051 -11.5090 -10.2175 -10.1928  -9.9914  -9.7383  -9.2064  -9.1950
    -8.9405  -8.9283   1.3637   1.3816   1.4547   1.4940   2.0238   2.4483
     2.9276   2.9287   3.2524   3.4633   3.7444   3.7960   4.1421   4.2428
     4.3168   4.3385   4.3545   4.4845   4.5218   4.6979   4.6992   4.9157
     5.1867   5.4579   5.6376   5.7883   5.8210   5.8361   5.8468   6.1217

          k = 0.0000 0.2835 0.0000 (  7385 PWs)   bands (ev):

   -56.7257 -56.7209 -56.6951 -56.6879 -31.2945 -31.2878 -31.2768 -31.2633
   -30.9245 -30.7922 -30.7298 -30.6521 -30.6451 -30.6007 -30.5706 -30.5636
   -11.5923 -11.4129 -10.1779 -10.1614  -9.9331  -9.7124  -9.1754  -9.1245
    -8.8432  -8.7854   1.2820   1.2935   1.3688   1.4092   1.4283   1.5940
     2.2711   2.3174   2.4478   2.6220   3.2911   3.3764   3.3985   4.0967
     4.1336   4.1644   4.3614   4.8979   5.0015   5.1773   5.1914   5.4793
     5.6278   5.7664   5.8427   5.8830   5.9103   6.0620   6.2978   6.3857

          k = 0.3584 0.0000 0.0000 (  7381 PWs)   bands (ev):

   -56.7128 -56.7069 -56.6970 -56.6908 -31.2751 -31.2680 -31.2616 -31.2508
   -30.9158 -30.8480 -30.8188 -30.7934 -30.6818 -30.6695 -30.6268 -30.5988
   -10.8707 -10.6297 -10.0546  -9.8149  -9.6985  -9.6199  -9.0903  -9.0771
    -8.9999  -8.9670   0.8089   1.0135   1.5754   1.8548   2.1572   2.4214
     2.4580   2.6195   2.8774   3.0283   3.0864   3.1439   3.6871   3.8959
     4.0390   4.1590   4.1891   4.2936   4.7597   4.8369   4.8375   4.9621
     5.1240   5.1856   5.4065   5.5759   5.7903   5.8726   6.0798   6.3278

          k = 0.3584 0.2835 0.0000 (  7354 PWs)   bands (ev):

   -56.7111 -56.7055 -56.6961 -56.6906 -31.2807 -31.2734 -31.2699 -31.2588
   -30.9144 -30.8472 -30.8174 -30.7926 -30.6817 -30.6693 -30.6269 -30.5990
   -10.7732 -10.5558 -10.0195  -9.8104  -9.6502  -9.6026  -9.0277  -8.9771
    -8.8626  -8.8141   0.8066   1.0041   1.4245   1.6004   1.6879   1.6913
     2.1704   2.2335   2.4401   2.4610   2.6211   3.1035   3.3225   3.6660
     3.7399   3.7442   3.9792   3.9926   4.1764   4.6189   4.8467   5.2777
     5.6370   5.7483   5.9536   6.1087   6.1783   6.3565   6.4139   6.5567

     highest occupied level (ev):     6.5567

!    total energy              =    -921.48464597 Ry
     Harris-Foulkes estimate   =    -921.48464597 Ry
     estimated scf accuracy    <          2.0E-11 Ry

     The total energy is the sum of the following terms:

     one-electron contribution =    -535.79645520 Ry
     hartree contribution      =     319.07598052 Ry
     xc contribution           =    -176.36788476 Ry
     ewald contribution        =    -528.23543664 Ry
     Dispersion Correction     =      -0.16084990 Ry

     convergence has been achieved in  30 iterations

     Forces acting on atoms (cartesian axes, Ry/au):

     atom    1 type  1   force =     0.00000000    0.20592124    0.05920732
     atom    2 type  1   force =     0.00000000   -0.20592124   -0.05920732
     atom    3 type  1   force =     0.00000000   -0.20592124    0.05920732
     atom    4 type  1   force =     0.00000000    0.20592124   -0.05920732
     atom    5 type  2   force =     0.00000000    0.04284065   -0.03365872
     atom    6 type  2   force =     0.00000000   -0.04284065    0.03365872
     atom    7 type  2   force =     0.00000000   -0.04284065   -0.03365872
     atom    8 type  2   force =     0.00000000    0.04284065    0.03365872
     atom    9 type  2   force =     0.00000000   -0.34310160    0.01103263
     atom   10 type  2   force =    -0.00000000    0.34310160   -0.01103263
     atom   11 type  2   force =     0.00000000    0.34310160    0.01103263
     atom   12 type  2   force =     0.00000000   -0.09783673    0.00000000
     atom   13 type  2   force =     0.00000000    0.09783673   -0.00000000
     atom   14 type  2   force =     0.00000000   -0.34310160   -0.01103263

     Total force =     0.828260     Total SCF correction =     0.000017


     Computing stress (Cartesian axis) and pressure

          total   stress  (Ry/bohr**3)                   (kbar)     P=  404.55
   0.00227383   0.00000000   0.00000000        334.49      0.00      0.00
   0.00000000   0.00338201   0.00000000          0.00    497.51      0.00
   0.00000000   0.00000000   0.00259439          0.00      0.00    381.65


     number of scf cycles    =   2
     number of bfgs steps    =   1

     enthalpy old            =    -921.3492279881 Ry
     enthalpy new            =    -921.4846459726 Ry

     CASE: enthalpy_new < enthalpy_old

     new trust radius        =       0.1663236002 bohr
     new conv_thr            =            1.0E-10 Ry

     new unit-cell volume =   1035.89443 a.u.^3 (   153.50371 Ang^3 )
     density =      3.93500 g/cm^3

CELL_PARAMETERS (alat=  6.68268247)
   0.938062677   0.000000000   0.000000000
   0.000000000   1.202971870   0.000000000
   0.000000000   0.000000000   3.075924631

ATOMIC_POSITIONS (crystal)
V        0.000000000   0.394347611   0.649241951
V        0.500000016   0.605652420   0.850758095
V        0.500000016   0.605652420   0.149241936
V        0.000000000   0.394347611   0.350758079
O        0.500000016   0.495494837   0.680649509
O        0.000000000   0.504505194   0.819350537
O        0.000000000   0.504505194   0.180649494
O        0.500000016   0.495494837   0.319350522
O        0.000000000   0.009044416   0.354598297
O        0.500000016   0.990955616   0.145401720
O        0.500000016   0.990955616   0.854598312
O        0.500000016   0.503421970   0.000000000
O        0.000000000   0.496578061   0.500000016
O        0.000000000   0.009044416   0.645401735



     Writing output data file v2o5.save/
     NEW-OLD atomic charge density approx. for the potential

     Check: negative core charge=   -0.000078
     extrapolated charge  116.79883, renormalised to  112.00000

     total cpu time spent up to now is       36.7 secs

     Self-consistent Calculation

     iteration #  1     ecut=    50.00 Ry     beta= 0.70
     Davidson diagonalization with overlap
     ethr =  1.00E-06,  avg # of iterations = 12.2

     total cpu time spent up to now is       38.9 secs

     total energy              =    -918.18271228 Ry
     Harris-Foulkes estimate   =    -903.34200388 Ry
     estimated scf accuracy    <       3.28538726 Ry

     iteration #  2     ecut=    50.00 Ry     beta= 0.70
     Davidson diagonalization with overlap
     ethr =  2.93E-03,  avg # of iterations =  8.2

     total cpu time spent up to now is       40.0 secs

     total energy              =    -913.70939020 Ry
     Harris-Foulkes estimate   =    -934.03643943 Ry
     estimated scf accuracy    <     120.79500170 Ry

     iteration #  3     ecut=    50.00 Ry     beta= 0.70
     Davidson diagonalization with overlap
     ethr =  2.93E-03,  avg # of iterations =  7.0

     total cpu time spent up to now is       41.1 secs

     total energy              =    -921.55294676 Ry
     Harris-Foulkes estimate   =    -921.83991229 Ry
     estimated scf accuracy    <       0.82894518 Ry

     iteration #  4     ecut=    50.00 Ry     beta= 0.70
     Davidson diagonalization with overlap
     ethr =  7.40E-04,  avg # of iterations =  4.0

     total cpu time spent up to now is       41.6 secs

     total energy              =    -921.61185182 Ry
     Harris-Foulkes estimate   =    -921.65186691 Ry
     estimated scf accuracy    <       0.26956852 Ry

     iteration #  5     ecut=    50.00 Ry     beta= 0.70
     Davidson diagonalization with overlap
     ethr =  2.41E-04,  avg # of iterations =  2.2

     total cpu time spent up to now is       42.0 secs

     total energy              =    -921.59377272 Ry
     Harris-Foulkes estimate   =    -921.62563155 Ry
     estimated scf accuracy    <       0.17264974 Ry

     iteration #  6     ecut=    50.00 Ry     beta= 0.70
     Davidson diagonalization with overlap
     ethr =  1.54E-04,  avg # of iterations =  2.5

     total cpu time spent up to now is       42.4 secs

     total energy              =    -921.58359227 Ry
     Harris-Foulkes estimate   =    -921.60126644 Ry
     estimated scf accuracy    <       0.08413918 Ry

     iteration #  7     ecut=    50.00 Ry     beta= 0.70
     Davidson diagonalization with overlap
     ethr =  7.51E-05,  avg # of iterations =  4.0

     total cpu time spent up to now is       43.0 secs

     total energy              =    -921.60383588 Ry
     Harris-Foulkes estimate   =    -921.60461527 Ry
     estimated scf accuracy    <       0.00786337 Ry

     iteration #  8     ecut=    50.00 Ry     beta= 0.70
     Davidson diagonalization with overlap
     ethr =  7.02E-06,  avg # of iterations =  3.2

     total cpu time spent up to now is       43.5 secs

     total energy              =    -921.60247168 Ry
     Harris-Foulkes estimate   =    -921.60430229 Ry
     estimated scf accuracy    <       0.00718432 Ry

     iteration #  9     ecut=    50.00 Ry     beta= 0.70
     Davidson diagonalization with overlap
     ethr =  6.41E-06,  avg # of iterations =  4.0

     total cpu time spent up to now is       44.0 secs

     total energy              =    -921.60325034 Ry
     Harris-Foulkes estimate   =    -921.60351063 Ry
     estimated scf accuracy    <       0.00077425 Ry

     iteration # 10     ecut=    50.00 Ry     beta= 0.70
     Davidson diagonalization with overlap
     ethr =  6.91E-07,  avg # of iterations =  4.0

     total cpu time spent up to now is       44.7 secs

     total energy              =    -921.60349032 Ry
     Harris-Foulkes estimate   =    -921.60348348 Ry
     estimated scf accuracy    <       0.00013540 Ry

     iteration # 11     ecut=    50.00 Ry     beta= 0.70
     Davidson diagonalization with overlap
     ethr =  1.21E-07,  avg # of iterations =  5.0

     total cpu time spent up to now is       45.4 secs

     total energy              =    -921.60339883 Ry
     Harris-Foulkes estimate   =    -921.60358007 Ry
     estimated scf accuracy    <       0.00097077 Ry

     iteration # 12     ecut=    50.00 Ry     beta= 0.70
     Davidson diagonalization with overlap
     ethr =  1.21E-07,  avg # of iterations =  5.2

     total cpu time spent up to now is       46.3 secs

     total energy              =    -921.60346056 Ry
     Harris-Foulkes estimate   =    -921.60346586 Ry
     estimated scf accuracy    <       0.00003506 Ry

     iteration # 13     ecut=    50.00 Ry     beta= 0.70
     Davidson diagonalization with overlap
     ethr =  3.13E-08,  avg # of iterations =  1.0

     total cpu time spent up to now is       46.7 secs

     total energy              =    -921.60345729 Ry
     Harris-Foulkes estimate   =    -921.60346126 Ry
     estimated scf accuracy    <       0.00002022 Ry

     iteration # 14     ecut=    50.00 Ry     beta= 0.70
     Davidson diagonalization with overlap
     ethr =  1.81E-08,  avg # of iterations =  4.0

     total cpu time spent up to now is       47.2 secs

     total energy              =    -921.60346175 Ry
     Harris-Foulkes estimate   =    -921.60346204 Ry
     estimated scf accuracy    <       0.00000303 Ry

     iteration # 15     ecut=    50.00 Ry     beta= 0.70
     Davidson diagonalization with overlap
     ethr =  2.71E-09,  avg # of iterations =  2.5

     total cpu time spent up to now is       47.6 secs

     total energy              =    -921.60346145 Ry
     Harris-Foulkes estimate   =    -921.60346183 Ry
     estimated scf accuracy    <       0.00000232 Ry

     iteration # 16     ecut=    50.00 Ry     beta= 0.70
     Davidson diagonalization with overlap
     ethr =  2.07E-09,  avg # of iterations =  4.0

     total cpu time spent up to now is       48.1 secs

     total energy              =    -921.60346164 Ry
     Harris-Foulkes estimate   =    -921.60346164 Ry
     estimated scf accuracy    <       0.00000031 Ry

     iteration # 17     ecut=    50.00 Ry     beta= 0.70
     Davidson diagonalization with overlap
     ethr =  2.76E-10,  avg # of iterations =  4.0

     total cpu time spent up to now is       48.6 secs

     total energy              =    -921.60346167 Ry
     Harris-Foulkes estimate   =    -921.60346167 Ry
     estimated scf accuracy    <       0.00000020 Ry

     iteration # 18     ecut=    50.00 Ry     beta= 0.70
     Davidson diagonalization with overlap
     ethr =  1.75E-10,  avg # of iterations =  1.0

     total cpu time spent up to now is       49.0 secs

     total energy              =    -921.60346163 Ry
     Harris-Foulkes estimate   =    -921.60346167 Ry
     estimated scf accuracy    <       0.00000018 Ry

     iteration # 19     ecut=    50.00 Ry     beta= 0.70
     Davidson diagonalization with overlap
     ethr =  1.57E-10,  avg # of iterations =  3.5

     total cpu time spent up to now is       49.5 secs

     total energy              =    -921.60346165 Ry
     Harris-Foulkes estimate   =    -921.60346166 Ry
     estimated scf accuracy    <       0.00000004 Ry

     iteration # 20     ecut=    50.00 Ry     beta= 0.70
     Davidson diagonalization with overlap
     ethr =  3.42E-11,  avg # of iterations =  3.8

     total cpu time spent up to now is       50.0 secs

     total energy              =    -921.60346165 Ry
     Harris-Foulkes estimate   =    -921.60346165 Ry
     estimated scf accuracy    <       0.00000001 Ry

     iteration # 21     ecut=    50.00 Ry     beta= 0.70
     Davidson diagonalization with overlap
     ethr =  1.19E-11,  avg # of iterations =  3.8

     total cpu time spent up to now is       50.6 secs

     total energy              =    -921.60346165 Ry
     Harris-Foulkes estimate   =    -921.60346165 Ry
     estimated scf accuracy    <          1.7E-09 Ry

     iteration # 22     ecut=    50.00 Ry     beta= 0.70
     Davidson diagonalization with overlap
     ethr =  1.50E-12,  avg # of iterations =  4.5

     total cpu time spent up to now is       51.4 secs

     total energy              =    -921.60346165 Ry
     Harris-Foulkes estimate   =    -921.60346165 Ry
     estimated scf accuracy    <          8.6E-10 Ry

     iteration # 23     ecut=    50.00 Ry     beta= 0.70
     Davidson diagonalization with overlap
     ethr =  7.66E-13,  avg # of iterations =  1.0

     total cpu time spent up to now is       51.7 secs

     total energy              =    -921.60346165 Ry
     Harris-Foulkes estimate   =    -921.60346165 Ry
     estimated scf accuracy    <          6.3E-10 Ry

     iteration # 24     ecut=    50.00 Ry     beta= 0.70
     Davidson diagonalization with overlap
     ethr =  5.63E-13,  avg # of iterations =  4.0

     total cpu time spent up to now is       52.3 secs

     End of self-consistent calculation

          k = 0.0000 0.0000 0.0000 (  7409 PWs)   bands (ev):

   -57.8140 -57.8100 -57.7820 -57.7744 -32.0635 -31.9686 -31.8834 -31.8758
   -31.8704 -31.7878 -31.7852 -31.7825 -31.7021 -31.6909 -31.6689 -31.6576
   -12.6195 -12.4593 -11.3148 -11.3002 -10.7726 -10.5636  -9.5060  -9.4740
    -9.1961  -9.1716   0.4625   0.5493   0.6345   0.6679   1.3034   1.9852
     2.1138   2.4689   2.9680   3.1867   3.4026   3.4528   3.6564   3.6733
     4.0196   4.2053   4.2522   4.4429   4.6331   4.7663   4.9229   4.9502
     4.9749   5.0072   5.0982   5.1149   5.6276   5.8038   5.8530   5.9772

          k = 0.0000 0.2771 0.0000 (  7385 PWs)   bands (ev):

   -57.8143 -57.8103 -57.7785 -57.7736 -32.0632 -31.9685 -31.8844 -31.8753
   -31.8701 -31.7878 -31.7873 -31.7825 -31.7053 -31.6939 -31.6746 -31.6623
   -12.5546 -12.4041 -11.2967 -11.2831 -10.7321 -10.5468  -9.4589  -9.3948
    -9.1005  -9.0308   0.4497   0.5224   0.5954   0.6337   1.0554   1.3842
     1.8879   2.0187   2.1974   2.3974   3.1562   3.2320   3.2342   3.6352
     3.6862   3.9883   4.0494   4.1588   4.5665   4.7157   4.8113   5.1250
     5.3502   5.4243   5.5090   5.6911   5.7114   5.7425   5.9881   6.2735

          k = 0.3553 0.0000 0.0000 (  7381 PWs)   bands (ev):

   -57.8000 -57.7957 -57.7832 -57.7780 -32.0721 -32.0279 -32.0166 -32.0004
   -31.8624 -31.8573 -31.8119 -31.7778 -31.6871 -31.6811 -31.6733 -31.6667
   -11.7745 -11.5856 -10.9964 -10.8828 -10.5901 -10.4703  -9.3744  -9.3439
    -9.2299  -9.2135  -0.1302   0.0155   0.7583   0.9612   1.4529   1.5639
     1.5839   1.9197   2.4180   2.4548   2.7628   3.1316   3.4378   3.5956
     3.7847   4.0021   4.1184   4.3141   4.6019   4.7015   4.7042   4.8934
     5.0212   5.0330   5.0541   5.4222   5.5456   5.5642   5.7905   5.8776

          k = 0.3553 0.2771 0.0000 (  7354 PWs)   bands (ev):

   -57.7983 -57.7944 -57.7815 -57.7773 -32.0716 -32.0274 -32.0163 -32.0000
   -31.8624 -31.8581 -31.8118 -31.7788 -31.6910 -31.6847 -31.6783 -31.6712
   -11.7223 -11.5467 -10.9874 -10.8784 -10.5528 -10.4561  -9.2960  -9.2346
    -9.1163  -9.0541  -0.1370   0.0074   0.7266   0.9186   1.2881   1.3962
     1.4530   1.4895   1.8474   2.2908   2.4894   2.4919   2.8377   3.2579
     3.2855   3.5367   3.6544   3.8032   4.2139   4.4422   4.6142   5.0931
     5.2491   5.5118   5.7329   5.8027   5.8161   5.9696   6.0454   6.2348

     highest occupied level (ev):     6.2735

!    total energy              =    -921.60346165 Ry
     Harris-Foulkes estimate   =    -921.60346165 Ry
     estimated scf accuracy    <          2.9E-11 Ry

     The total energy is the sum of the following terms:

     one-electron contribution =    -530.71566557 Ry
     hartree contribution      =     313.22531617 Ry
     xc contribution           =    -175.13203254 Ry
     ewald contribution        =    -528.82883095 Ry
     Dispersion Correction     =      -0.15224876 Ry

     convergence has been achieved in  24 iterations

     Forces acting on atoms (cartesian axes, Ry/au):

     atom    1 type  1   force =     0.00000000   -0.18369820   -0.01565017
     atom    2 type  1   force =    -0.00000000    0.18369820    0.01565017
     atom    3 type  1   force =    -0.00000000    0.18369820   -0.01565017
     atom    4 type  1   force =     0.00000000   -0.18369820    0.01565017
     atom    5 type  2   force =     0.00000000    0.03593528   -0.02292896
     atom    6 type  2   force =     0.00000000   -0.03593528    0.02292896
     atom    7 type  2   force =     0.00000000   -0.03593528   -0.02292896
     atom    8 type  2   force =    -0.00000000    0.03593528    0.02292896
     atom    9 type  2   force =     0.00000000    0.07864608    0.00291896
     atom   10 type  2   force =     0.00000000   -0.07864608   -0.00291896
     atom   11 type  2   force =    -0.00000000   -0.07864608    0.00291896
     atom   12 type  2   force =     0.00000000   -0.05401583    0.00000000
     atom   13 type  2   force =    -0.00000000    0.05401583    0.00000000
     atom   14 type  2   force =     0.00000000    0.07864608   -0.00291896

     Total force =     0.416939     Total SCF correction =     0.000012


     Computing stress (Cartesian axis) and pressure

          total   stress  (Ry/bohr**3)                   (kbar)     P=   23.95
   0.00152605   0.00000000   0.00000000        224.49      0.00      0.00
   0.00000000  -0.00227953   0.00000000          0.00   -335.33      0.00
   0.00000000   0.00000000   0.00124195          0.00      0.00    182.70


     number of scf cycles    =   3
     number of bfgs steps    =   2

     enthalpy old            =    -921.4846459726 Ry
     enthalpy new            =    -921.6034616520 Ry

     CASE: enthalpy_new < enthalpy_old

     new trust radius        =       0.2632008170 bohr
     new conv_thr            =            1.0E-10 Ry

     new unit-cell volume =   1094.46692 a.u.^3 (   162.18326 Ang^3 )
     density =      3.72441 g/cm^3

CELL_PARAMETERS (alat=  6.68268247)
   0.976418504   0.000000000   0.000000000
   0.000000000   1.177135215   0.000000000
   0.000000000   0.000000000   3.190713495

ATOMIC_POSITIONS (crystal)
V        0.000000000   0.383810562   0.649311022
V        0.500000013   0.616189465   0.850689017
V        0.500000013   0.616189465   0.149311009
V        0.000000000   0.383810562   0.350689004
O        0.500000013   0.499661121   0.679567201
O        0.000000000   0.500338906   0.820432838
O        0.000000000   0.500338906   0.179567189
O        0.500000013   0.499661121   0.320432824
O        0.000000000   0.007081726   0.354799889
O        0.500000013   0.992918301   0.145200126
O        0.500000013   0.992918301   0.854799901
O        0.500000013   0.496299536   0.000000000
O       -0.000000000   0.503700490   0.500000013
O        0.000000000   0.007081726   0.645200139



     Writing output data file v2o5.save/
     NEW-OLD atomic charge density approx. for the potential

     Check: negative core charge=   -0.000105
     extrapolated charge  117.99367, renormalised to  112.00000

     total cpu time spent up to now is       53.5 secs

     Self-consistent Calculation

     iteration #  1     ecut=    50.00 Ry     beta= 0.70
     Davidson diagonalization with overlap
     ethr =  1.00E-06,  avg # of iterations = 12.0

     total cpu time spent up to now is       55.6 secs

     total energy              =    -917.76351058 Ry
     Harris-Foulkes estimate   =    -898.89276246 Ry
     estimated scf accuracy    <       3.34188764 Ry

     iteration #  2     ecut=    50.00 Ry     beta= 0.70
     Davidson diagonalization with overlap
     ethr =  2.98E-03,  avg # of iterations =  9.5

     total cpu time spent up to now is       56.9 secs

     total energy              =    -913.63348140 Ry
     Harris-Foulkes estimate   =    -934.95573596 Ry
     estimated scf accuracy    <     128.76277585 Ry

     iteration #  3     ecut=    50.00 Ry     beta= 0.70
     Davidson diagonalization with overlap
     ethr =  2.98E-03,  avg # of iterations =  5.5

     total cpu time spent up to now is       57.9 secs

     total energy              =    -921.68158196 Ry
     Harris-Foulkes estimate   =    -922.02598266 Ry
     estimated scf accuracy    <       1.19695364 Ry

     iteration #  4     ecut=    50.00 Ry     beta= 0.70
     Davidson diagonalization with overlap
     ethr =  1.07E-03,  avg # of iterations =  4.0

     total cpu time spent up to now is       58.4 secs

     total energy              =    -921.70695581 Ry
     Harris-Foulkes estimate   =    -921.76678044 Ry
     estimated scf accuracy    <       0.56773244 Ry

     iteration #  5     ecut=    50.00 Ry     beta= 0.70
     Davidson diagonalization with overlap
     ethr =  5.07E-04,  avg # of iterations =  1.2

     total cpu time spent up to now is       58.7 secs

     total energy              =    -921.65249183 Ry
     Harris-Foulkes estimate   =    -921.72016846 Ry
     estimated scf accuracy    <       0.41004699 Ry

     iteration #  6     ecut=    50.00 Ry     beta= 0.70
     Davidson diagonalization with overlap
     ethr =  3.66E-04,  avg # of iterations =  1.5

     total cpu time spent up to now is       59.1 secs

     total energy              =    -921.61547712 Ry
     Harris-Foulkes estimate   =    -921.66400451 Ry
     estimated scf accuracy    <       0.22646361 Ry

     iteration #  7     ecut=    50.00 Ry     beta= 0.70
     Davidson diagonalization with overlap
     ethr =  2.02E-04,  avg # of iterations =  4.0

     total cpu time spent up to now is       59.7 secs

     total energy              =    -921.67307359 Ry
     Harris-Foulkes estimate   =    -921.67640033 Ry
     estimated scf accuracy    <       0.04818280 Ry

     iteration #  8     ecut=    50.00 Ry     beta= 0.70
     Davidson diagonalization with overlap
     ethr =  4.30E-05,  avg # of iterations =  1.0

     total cpu time spent up to now is       60.1 secs

     total energy              =    -921.66446441 Ry
     Harris-Foulkes estimate   =    -921.67359635 Ry
     estimated scf accuracy    <       0.04071386 Ry

     iteration #  9     ecut=    50.00 Ry     beta= 0.70
     Davidson diagonalization with overlap
     ethr =  3.64E-05,  avg # of iterations =  3.2

     total cpu time spent up to now is       60.5 secs

     total energy              =    -921.66616308 Ry
     Harris-Foulkes estimate   =    -921.66754059 Ry
     estimated scf accuracy    <       0.00824712 Ry

     iteration # 10     ecut=    50.00 Ry     beta= 0.70
     Davidson diagonalization with overlap
     ethr =  7.36E-06,  avg # of iterations =  4.2

     total cpu time spent up to now is       61.2 secs

     total energy              =    -921.66802476 Ry
     Harris-Foulkes estimate   =    -921.66853091 Ry
     estimated scf accuracy    <       0.00222755 Ry

     iteration # 11     ecut=    50.00 Ry     beta= 0.70
     Davidson diagonalization with overlap
     ethr =  1.99E-06,  avg # of iterations =  3.0

     total cpu time spent up to now is       61.7 secs

     total energy              =    -921.66792221 Ry
     Harris-Foulkes estimate   =    -921.66816586 Ry
     estimated scf accuracy    <       0.00123909 Ry

     iteration # 12     ecut=    50.00 Ry     beta= 0.70
     Davidson diagonalization with overlap
     ethr =  1.11E-06,  avg # of iterations =  4.0

     total cpu time spent up to now is       62.2 secs

     total energy              =    -921.66800473 Ry
     Harris-Foulkes estimate   =    -921.66803429 Ry
     estimated scf accuracy    <       0.00060566 Ry

     iteration # 13     ecut=    50.00 Ry     beta= 0.70
     Davidson diagonalization with overlap
     ethr =  5.41E-07,  avg # of iterations =  1.0

     total cpu time spent up to now is       62.5 secs

     total energy              =    -921.66795391 Ry
     Harris-Foulkes estimate   =    -921.66801506 Ry
     estimated scf accuracy    <       0.00051361 Ry

     iteration # 14     ecut=    50.00 Ry     beta= 0.70
     Davidson diagonalization with overlap
     ethr =  4.59E-07,  avg # of iterations =  1.5

     total cpu time spent up to now is       62.8 secs

     total energy              =    -921.66793472 Ry
     Harris-Foulkes estimate   =    -921.66796710 Ry
     estimated scf accuracy    <       0.00030206 Ry

     iteration # 15     ecut=    50.00 Ry     beta= 0.70
     Davidson diagonalization with overlap
     ethr =  2.70E-07,  avg # of iterations =  4.0

     total cpu time spent up to now is       63.3 secs

     total energy              =    -921.66797254 Ry
     Harris-Foulkes estimate   =    -921.66797131 Ry
     estimated scf accuracy    <       0.00004418 Ry

     iteration # 16     ecut=    50.00 Ry     beta= 0.70
     Davidson diagonalization with overlap
     ethr =  3.94E-08,  avg # of iterations =  4.0

     total cpu time spent up to now is       63.9 secs

     total energy              =    -921.66798158 Ry
     Harris-Foulkes estimate   =    -921.66798372 Ry
     estimated scf accuracy    <       0.00001053 Ry

     iteration # 17     ecut=    50.00 Ry     beta= 0.70
     Davidson diagonalization with overlap
     ethr =  9.40E-09,  avg # of iterations =  3.5

     total cpu time spent up to now is       64.3 secs

     total energy              =    -921.66798157 Ry
     Harris-Foulkes estimate   =    -921.66798212 Ry
     estimated scf accuracy    <       0.00000437 Ry

     iteration # 18     ecut=    50.00 Ry     beta= 0.70
     Davidson diagonalization with overlap
     ethr =  3.90E-09,  avg # of iterations =  4.0

     total cpu time spent up to now is       64.9 secs

     total energy              =    -921.66798208 Ry
     Harris-Foulkes estimate   =    -921.66798214 Ry
     estimated scf accuracy    <       0.00000049 Ry

     iteration # 19     ecut=    50.00 Ry     beta= 0.70
     Davidson diagonalization with overlap
     ethr =  4.41E-10,  avg # of iterations =  4.8

     total cpu time spent up to now is       65.5 secs

     total energy              =    -921.66798227 Ry
     Harris-Foulkes estimate   =    -921.66798228 Ry
     estimated scf accuracy    <       0.00000006 Ry

     iteration # 20     ecut=    50.00 Ry     beta= 0.70
     Davidson diagonalization with overlap
     ethr =  5.23E-11,  avg # of iterations =  4.2

     total cpu time spent up to now is       66.1 secs

     total energy              =    -921.66798227 Ry
     Harris-Foulkes estimate   =    -921.66798228 Ry
     estimated scf accuracy    <       0.00000009 Ry

     iteration # 21     ecut=    50.00 Ry     beta= 0.70
     Davidson diagonalization with overlap
     ethr =  5.23E-11,  avg # of iterations =  1.2

     total cpu time spent up to now is       66.4 secs

     total energy              =    -921.66798227 Ry
     Harris-Foulkes estimate   =    -921.66798227 Ry
     estimated scf accuracy    <       0.00000007 Ry

     iteration # 22     ecut=    50.00 Ry     beta= 0.70
     Davidson diagonalization with overlap
     ethr =  5.23E-11,  avg # of iterations =  3.8

     total cpu time spent up to now is       66.9 secs

     total energy              =    -921.66798227 Ry
     Harris-Foulkes estimate   =    -921.66798227 Ry
     estimated scf accuracy    <       0.00000006 Ry

     iteration # 23     ecut=    50.00 Ry     beta= 0.70
     Davidson diagonalization with overlap
     ethr =  5.02E-11,  avg # of iterations =  1.0

     total cpu time spent up to now is       67.3 secs

     total energy              =    -921.66798226 Ry
     Harris-Foulkes estimate   =    -921.66798227 Ry
     estimated scf accuracy    <       0.00000005 Ry

     iteration # 24     ecut=    50.00 Ry     beta= 0.70
     Davidson diagonalization with overlap
     ethr =  4.21E-11,  avg # of iterations =  3.2

     total cpu time spent up to now is       67.7 secs

     total energy              =    -921.66798226 Ry
     Harris-Foulkes estimate   =    -921.66798226 Ry
     estimated scf accuracy    <       0.00000001 Ry

     iteration # 25     ecut=    50.00 Ry     beta= 0.70
     Davidson diagonalization with overlap
     ethr =  1.24E-11,  avg # of iterations =  4.0

     total cpu time spent up to now is       68.2 secs

     total energy              =    -921.66798226 Ry
     Harris-Foulkes estimate   =    -921.66798227 Ry
     estimated scf accuracy    <          4.3E-09 Ry

     iteration # 26     ecut=    50.00 Ry     beta= 0.70
     Davidson diagonalization with overlap
     ethr =  3.84E-12,  avg # of iterations =  4.0

     total cpu time spent up to now is       68.8 secs

     total energy              =    -921.66798227 Ry
     Harris-Foulkes estimate   =    -921.66798227 Ry
     estimated scf accuracy    <          1.1E-09 Ry

     iteration # 27     ecut=    50.00 Ry     beta= 0.70
     Davidson diagonalization with overlap
     ethr =  9.75E-13,  avg # of iterations =  3.8

     total cpu time spent up to now is       69.3 secs

     total energy              =    -921.66798227 Ry
     Harris-Foulkes estimate   =    -921.66798227 Ry
     estimated scf accuracy    <          2.0E-10 Ry

     iteration # 28     ecut=    50.00 Ry     beta= 0.70
     Davidson diagonalization with overlap
     ethr =  1.80E-13,  avg # of iterations =  4.0

     total cpu time spent up to now is       70.0 secs

     total energy              =    -921.66798227 Ry
     Harris-Foulkes estimate   =    -921.66798227 Ry
     estimated scf accuracy    <          4.9E-10 Ry

     iteration # 29     ecut=    50.00 Ry     beta= 0.70
     Davidson diagonalization with overlap
     ethr =  1.80E-13,  avg # of iterations =  1.0

     total cpu time spent up to now is       70.3 secs

     total energy              =    -921.66798227 Ry
     Harris-Foulkes estimate   =    -921.66798227 Ry
     estimated scf accuracy    <          4.6E-10 Ry

     iteration # 30     ecut=    50.00 Ry     beta= 0.70
     Davidson diagonalization with overlap
     ethr =  1.80E-13,  avg # of iterations =  4.0

     total cpu time spent up to now is       71.0 secs

     End of self-consistent calculation

          k = 0.0000 0.0000 0.0000 (  7409 PWs)   bands (ev):

   -58.5821 -58.5795 -58.5637 -58.5561 -32.7054 -32.7005 -32.6806 -32.6746
   -32.6016 -32.5419 -32.5117 -32.5083 -32.4971 -32.4590 -32.4556 -32.4365
   -12.5484 -12.4167 -11.3583 -11.3115 -10.9656 -10.8200 -10.5057 -10.4468
   -10.3358 -10.2580   0.7421   0.7501   0.8032   0.8348   1.2869   1.7069
     2.1938   2.4329   2.4708   2.8831   2.8931   2.9434   3.3214   3.4016
     3.5153   3.5680   3.5847   3.6736   3.7257   3.7401   3.7603   3.7625
     4.0807   4.3015   4.4716   4.5032   4.5148   4.5696   4.6665   4.8811

          k = 0.0000 0.2832 0.0000 (  7385 PWs)   bands (ev):

   -58.5805 -58.5797 -58.5607 -58.5554 -32.7104 -32.7057 -32.6892 -32.6830
   -32.6008 -32.5408 -32.5109 -32.5078 -32.4968 -32.4588 -32.4558 -32.4363
   -12.4295 -12.3145 -11.2867 -11.2659 -10.8926 -10.7613 -10.4641 -10.4427
   -10.2168 -10.1944   0.6504   0.6655   0.7218   0.7745   0.9024   0.9462
     1.4642   1.5651   1.6609   1.8269   2.3793   2.4345   2.5142   3.1550
     3.2056   3.5055   3.6361   3.7534   3.9130   4.0787   4.2528   4.3009
     4.4199   4.5952   4.6019   4.6032   4.6780   5.1026   5.1055   5.3975

          k = 0.3414 0.0000 0.0000 (  7381 PWs)   bands (ev):

   -58.5728 -58.5699 -58.5624 -58.5587 -32.6964 -32.6927 -32.6788 -32.6751
   -32.6103 -32.5988 -32.5813 -32.5744 -32.4983 -32.4886 -32.4695 -32.4408
   -11.8709 -11.7266 -11.1016 -11.0566 -10.9462 -10.7702 -10.4407 -10.4103
   -10.3732 -10.2891   0.1359   0.2149   0.9646   1.1946   1.4370   1.4688
     1.5690   2.0817   2.1013   2.4617   2.5199   2.6764   3.1237   3.1246
     3.1458   3.3034   3.3644   3.4303   3.6865   3.6886   3.7716   3.9124
     4.0287   4.1407   4.4089   4.4480   4.5195   4.6613   4.9229   5.1689

          k = 0.3414 0.2832 0.0000 (  7354 PWs)   bands (ev):

   -58.5700 -58.5681 -58.5611 -58.5593 -32.7020 -32.6983 -32.6863 -32.6823
   -32.6097 -32.5983 -32.5809 -32.5737 -32.4980 -32.4886 -32.4693 -32.4407
   -11.7697 -11.6503 -11.0883 -11.0493 -10.8223 -10.7108 -10.3571 -10.3383
   -10.2355 -10.2243   0.1230   0.2049   0.8379   1.0250   1.0703   1.1180
     1.3812   1.3991   1.5337   1.7772   1.8384   2.1405   2.5129   2.5530
     2.7156   2.7435   2.8752   3.0429   3.2426   3.7058   4.0711   4.2222
     4.4467   4.5308   4.9229   5.0426   5.1690   5.2540   5.4015   5.4203

     highest occupied level (ev):     5.4203

!    total energy              =    -921.66798227 Ry
     Harris-Foulkes estimate   =    -921.66798227 Ry
     estimated scf accuracy    <          3.0E-11 Ry

     The total energy is the sum of the following terms:

     one-electron contribution =    -532.71433630 Ry
     hartree contribution      =     311.43880045 Ry
     xc contribution           =    -174.54381956 Ry
     ewald contribution        =    -525.70300684 Ry
     Dispersion Correction     =      -0.14562001 Ry

     convergence has been achieved in  30 iterations

     Forces acting on atoms (cartesian axes, Ry/au):

     atom    1 type  1   force =     0.00000000    0.00412904   -0.02463992
     atom    2 type  1   force =     0.00000000   -0.00412904    0.02463992
     atom    3 type  1   force =     0.00000000   -0.00412904   -0.02463992
     atom    4 type  1   force =     0.00000000    0.00412904    0.02463992
     atom    5 type  2   force =     0.00000000    0.00943697    0.00201178
     atom    6 type  2   force =     0.00000000   -0.00943697   -0.00201178
     atom    7 type  2   force =     0.00000000   -0.00943697    0.00201178
     atom    8 type  2   force =    -0.00000000    0.00943697   -0.00201178
     atom    9 type  2   force =     0.00000000   -0.02245668   -0.00015126
     atom   10 type  2   force =     0.00000000    0.02245668    0.00015126
     atom   11 type  2   force =    -0.00000000    0.02245668   -0.00015126
     atom   12 type  2   force =    -0.00000000    0.00171015    0.00000000
     atom   13 type  2   force =     0.00000000   -0.00171015    0.00000000
     atom   14 type  2   force =    -0.00000000   -0.02245668    0.00015126

     Total force =     0.069945     Total SCF correction =     0.000017


     Computing stress (Cartesian axis) and pressure

          total   stress  (Ry/bohr**3)                   (kbar)     P= -198.32
  -0.00134959   0.00000000   0.00000000       -198.53      0.00      0.00
   0.00000000  -0.00105176   0.00000000          0.00   -154.72      0.00
   0.00000000   0.00000000  -0.00164303          0.00      0.00   -241.70


     number of scf cycles    =   4
     number of bfgs steps    =   3

     enthalpy old            =    -921.6034616520 Ry
     enthalpy new            =    -921.6679822652 Ry

     CASE: enthalpy_new < enthalpy_old

     new trust radius        =       0.1225333144 bohr
     new conv_thr            =            1.0E-10 Ry

     new unit-cell volume =   1041.19474 a.u.^3 (   154.28914 Ang^3 )
     density =      3.91497 g/cm^3

CELL_PARAMETERS (alat=  6.68268247)
   0.963051699   0.000000000   0.000000000
   0.000000000   1.156805330   0.000000000
   0.000000000   0.000000000   3.131623945

ATOMIC_POSITIONS (crystal)
V        0.000000000   0.384320825   0.648732409
V        0.500000017   0.615679210   0.851267642
V        0.500000017   0.615679210   0.148732392
V        0.000000000   0.384320825   0.351267625
O        0.500000017   0.501365941   0.679366652
O        0.000000000   0.498634093   0.820633398
O        0.000000000   0.498634093   0.179366636
O        0.500000017   0.501365941   0.320633381
O        0.000000000   0.002179935   0.354861896
O        0.500000017   0.997820099   0.145138123
O        0.500000017   0.997820099   0.854861912
O        0.500000017   0.494583050   0.000000000
O       -0.000000000   0.505416985   0.500000017
O        0.000000000   0.002179935   0.645138140



     Writing output data file v2o5.save/
     NEW-OLD atomic charge density approx. for the potential

     Check: negative core charge=   -0.000084
     extrapolated charge  106.26979, renormalised to  112.00000

     total cpu time spent up to now is       72.2 secs

     Self-consistent Calculation

     iteration #  1     ecut=    50.00 Ry     beta= 0.70
     Davidson diagonalization with overlap
     ethr =  1.00E-06,  avg # of iterations = 15.5

     total cpu time spent up to now is       74.7 secs

     total energy              =    -897.66539257 Ry
     Harris-Foulkes estimate   =    -944.96972553 Ry
     estimated scf accuracy    <      25.25237430 Ry

     iteration #  2     ecut=    50.00 Ry     beta= 0.70
     Davidson diagonalization with overlap
     ethr =  1.00E-02,  avg # of iterations =  4.8

     total cpu time spent up to now is       75.7 secs

     total energy              =    -919.69179892 Ry
     Harris-Foulkes estimate   =    -955.45451078 Ry
     estimated scf accuracy    <      91.86279781 Ry

     iteration #  3     ecut=    50.00 Ry     beta= 0.70
     Davidson diagonalization with overlap
     ethr =  1.00E-02,  avg # of iterations =  4.2

     total cpu time spent up to now is       76.4 secs

     total energy              =    -923.24715197 Ry
     Harris-Foulkes estimate   =    -926.94004187 Ry
     estimated scf accuracy    <      21.25616718 Ry

     iteration #  4     ecut=    50.00 Ry     beta= 0.70
     Davidson diagonalization with overlap
     ethr =  1.00E-02,  avg # of iterations =  1.2

     total cpu time spent up to now is       76.8 secs

     total energy              =    -920.24619202 Ry
     Harris-Foulkes estimate   =    -923.61174864 Ry
     estimated scf accuracy    <      14.64336234 Ry

     iteration #  5     ecut=    50.00 Ry     beta= 0.70
     Davidson diagonalization with overlap
     ethr =  1.00E-02,  avg # of iterations =  4.0

     total cpu time spent up to now is       77.3 secs

     total energy              =    -920.94006485 Ry
     Harris-Foulkes estimate   =    -921.51077338 Ry
     estimated scf accuracy    <       5.27182041 Ry

     iteration #  6     ecut=    50.00 Ry     beta= 0.70
     Davidson diagonalization with overlap
     ethr =  4.71E-03,  avg # of iterations =  4.2

     total cpu time spent up to now is       77.8 secs

     total energy              =    -921.69716275 Ry
     Harris-Foulkes estimate   =    -921.71300701 Ry
     estimated scf accuracy    <       2.32745114 Ry

     iteration #  7     ecut=    50.00 Ry     beta= 0.70
     Davidson diagonalization with overlap
     ethr =  2.08E-03,  avg # of iterations =  3.8

     total cpu time spent up to now is       78.3 secs

     total energy              =    -922.01944627 Ry
     Harris-Foulkes estimate   =    -921.87061760 Ry
     estimated scf accuracy    <       1.44268826 Ry

     iteration #  8     ecut=    50.00 Ry     beta= 0.70
     Davidson diagonalization with overlap
     ethr =  1.29E-03,  avg # of iterations =  1.0

     total cpu time spent up to now is       78.6 secs

     total energy              =    -922.26836672 Ry
     Harris-Foulkes estimate   =    -922.03663416 Ry
     estimated scf accuracy    <       1.73159448 Ry

     iteration #  9     ecut=    50.00 Ry     beta= 0.70
     Davidson diagonalization with overlap
     ethr =  1.29E-03,  avg # of iterations =  1.5

     total cpu time spent up to now is       79.0 secs

     total energy              =    -922.28081800 Ry
     Harris-Foulkes estimate   =    -922.30564157 Ry
     estimated scf accuracy    <       2.54551967 Ry

     iteration # 10     ecut=    50.00 Ry     beta= 0.70
     Davidson diagonalization with overlap
     ethr =  1.29E-03,  avg # of iterations =  1.0

     negative rho (up, down):  2.640E-02 0.000E+00

     total cpu time spent up to now is       79.3 secs

     total energy              =    -922.00869054 Ry
     Harris-Foulkes estimate   =    -922.29531746 Ry
     estimated scf accuracy    <       2.53518498 Ry

     iteration # 11     ecut=    50.00 Ry     beta= 0.70
     Davidson diagonalization with overlap
     ethr =  1.29E-03,  avg # of iterations =  1.0

     negative rho (up, down):  1.913E-02 0.000E+00

     total cpu time spent up to now is       79.7 secs

     total energy              =    -921.76263502 Ry
     Harris-Foulkes estimate   =    -922.03326945 Ry
     estimated scf accuracy    <       2.02881861 Ry

     iteration # 12     ecut=    50.00 Ry     beta= 0.70
     Davidson diagonalization with overlap
     ethr =  1.29E-03,  avg # of iterations =  1.5

     negative rho (up, down):  2.098E-02 0.000E+00

     total cpu time spent up to now is       80.0 secs

     total energy              =    -921.90536505 Ry
     Harris-Foulkes estimate   =    -921.79568872 Ry
     estimated scf accuracy    <       1.22455404 Ry

     iteration # 13     ecut=    50.00 Ry     beta= 0.70
     Davidson diagonalization with overlap
     ethr =  1.09E-03,  avg # of iterations =  1.0

     negative rho (up, down):  1.696E-02 0.000E+00

     total cpu time spent up to now is       80.3 secs

     total energy              =    -921.80558412 Ry
     Harris-Foulkes estimate   =    -921.91986178 Ry
     estimated scf accuracy    <       1.43052134 Ry

     iteration # 14     ecut=    50.00 Ry     beta= 0.70
     Davidson diagonalization with overlap
     ethr =  1.09E-03,  avg # of iterations =  1.0

     negative rho (up, down):  2.423E-04 0.000E+00

     total cpu time spent up to now is       80.7 secs

     total energy              =    -920.90097129 Ry
     Harris-Foulkes estimate   =    -921.81855012 Ry
     estimated scf accuracy    <       1.12244450 Ry

     iteration # 15     ecut=    50.00 Ry     beta= 0.70
     Davidson diagonalization with overlap
     ethr =  1.00E-03,  avg # of iterations =  6.0

     total cpu time spent up to now is       81.7 secs

     total energy              =    -919.11437182 Ry
     Harris-Foulkes estimate   =    -924.94649669 Ry
     estimated scf accuracy    <      40.06021412 Ry

     iteration # 16     ecut=    50.00 Ry     beta= 0.70
     Davidson diagonalization with overlap
     ethr =  1.00E-03,  avg # of iterations =  6.0

     total cpu time spent up to now is       82.7 secs

     total energy              =    -921.70686898 Ry
     Harris-Foulkes estimate   =    -921.75886141 Ry
     estimated scf accuracy    <       0.36387134 Ry

     iteration # 17     ecut=    50.00 Ry     beta= 0.70
     Davidson diagonalization with overlap
     ethr =  3.25E-04,  avg # of iterations =  1.0

     total cpu time spent up to now is       83.0 secs

     total energy              =    -921.72704407 Ry
     Harris-Foulkes estimate   =    -921.71381822 Ry
     estimated scf accuracy    <       0.20017950 Ry

     iteration # 18     ecut=    50.00 Ry     beta= 0.70
     Davidson diagonalization with overlap
     ethr =  1.79E-04,  avg # of iterations =  1.0

     total cpu time spent up to now is       83.4 secs

     total energy              =    -921.67753630 Ry
     Harris-Foulkes estimate   =    -921.72938065 Ry
     estimated scf accuracy    <       0.21719068 Ry

     iteration # 19     ecut=    50.00 Ry     beta= 0.70
     Davidson diagonalization with overlap
     ethr =  1.79E-04,  avg # of iterations =  4.0

     total cpu time spent up to now is       84.0 secs

     total energy              =    -921.71534433 Ry
     Harris-Foulkes estimate   =    -921.72007995 Ry
     estimated scf accuracy    <       0.02010350 Ry

     iteration # 20     ecut=    50.00 Ry     beta= 0.70
     Davidson diagonalization with overlap
     ethr =  1.79E-05,  avg # of iterations =  4.0

     total cpu time spent up to now is       84.5 secs

     total energy              =    -921.71491371 Ry
     Harris-Foulkes estimate   =    -921.71726751 Ry
     estimated scf accuracy    <       0.00518831 Ry

     iteration # 21     ecut=    50.00 Ry     beta= 0.70
     Davidson diagonalization with overlap
     ethr =  4.63E-06,  avg # of iterations =  5.0

     total cpu time spent up to now is       85.4 secs

     total energy              =    -921.71188619 Ry
     Harris-Foulkes estimate   =    -921.72749154 Ry
     estimated scf accuracy    <       0.07491011 Ry

     iteration # 22     ecut=    50.00 Ry     beta= 0.70
     Davidson diagonalization with overlap
     ethr =  4.63E-06,  avg # of iterations =  4.8

     total cpu time spent up to now is       86.4 secs

     total energy              =    -921.71769803 Ry
     Harris-Foulkes estimate   =    -921.71797631 Ry
     estimated scf accuracy    <       0.00256152 Ry

     iteration # 23     ecut=    50.00 Ry     beta= 0.70
     Davidson diagonalization with overlap
     ethr =  2.29E-06,  avg # of iterations =  1.0

     total cpu time spent up to now is       86.8 secs

     total energy              =    -921.71770087 Ry
     Harris-Foulkes estimate   =    -921.71771404 Ry
     estimated scf accuracy    <       0.00194311 Ry

     iteration # 24     ecut=    50.00 Ry     beta= 0.70
     Davidson diagonalization with overlap
     ethr =  1.73E-06,  avg # of iterations =  1.0

     total cpu time spent up to now is       87.1 secs

     total energy              =    -921.71772518 Ry
     Harris-Foulkes estimate   =    -921.71772320 Ry
     estimated scf accuracy    <       0.00186858 Ry

     iteration # 25     ecut=    50.00 Ry     beta= 0.70
     Davidson diagonalization with overlap
     ethr =  1.67E-06,  avg # of iterations =  3.0

     total cpu time spent up to now is       87.5 secs

     total energy              =    -921.71732634 Ry
     Harris-Foulkes estimate   =    -921.71785233 Ry
     estimated scf accuracy    <       0.00214312 Ry

     iteration # 26     ecut=    50.00 Ry     beta= 0.70
     Davidson diagonalization with overlap
     ethr =  1.67E-06,  avg # of iterations =  1.5

     total cpu time spent up to now is       87.9 secs

     total energy              =    -921.71718748 Ry
     Harris-Foulkes estimate   =    -921.71739840 Ry
     estimated scf accuracy    <       0.00093988 Ry

     iteration # 27     ecut=    50.00 Ry     beta= 0.70
     Davidson diagonalization with overlap
     ethr =  8.39E-07,  avg # of iterations =  4.0

     total cpu time spent up to now is       88.6 secs

     total energy              =    -921.71747225 Ry
     Harris-Foulkes estimate   =    -921.71750828 Ry
     estimated scf accuracy    <       0.00032114 Ry

[...]

     iteration #  2     ecut=    50.00 Ry     beta= 0.70
     Davidson diagonalization with overlap
     ethr =  6.30E-03,  avg # of iterations =  6.5

     total cpu time spent up to now is      451.8 secs

     total energy              =    -908.20871241 Ry
     Harris-Foulkes estimate   =    -933.62732724 Ry
     estimated scf accuracy    <     108.17211006 Ry

     iteration #  3     ecut=    50.00 Ry     beta= 0.70
     Davidson diagonalization with overlap
     ethr =  6.30E-03,  avg # of iterations =  5.5

     total cpu time spent up to now is      452.4 secs

     total energy              =    -921.09142474 Ry
     Harris-Foulkes estimate   =    -921.70921083 Ry
     estimated scf accuracy    <       2.24844603 Ry

     iteration #  4     ecut=    50.00 Ry     beta= 0.70
     Davidson diagonalization with overlap
     ethr =  2.01E-03,  avg # of iterations =  3.2

     total cpu time spent up to now is      452.7 secs

     total energy              =    -921.13506149 Ry
     Harris-Foulkes estimate   =    -921.28308110 Ry
     estimated scf accuracy    <       0.91680333 Ry

     iteration #  5     ecut=    50.00 Ry     beta= 0.70
     Davidson diagonalization with overlap
     ethr =  8.19E-04,  avg # of iterations =  3.8

     total cpu time spent up to now is      453.0 secs

     total energy              =    -921.09110894 Ry
     Harris-Foulkes estimate   =    -921.19771771 Ry
     estimated scf accuracy    <       0.41884923 Ry

     iteration #  6     ecut=    50.00 Ry     beta= 0.70
     Davidson diagonalization with overlap
     ethr =  3.74E-04,  avg # of iterations =  4.0

     total cpu time spent up to now is      453.4 secs

     total energy              =    -921.21192287 Ry
     Harris-Foulkes estimate   =    -921.21586575 Ry
     estimated scf accuracy    <       0.05859449 Ry

     iteration #  7     ecut=    50.00 Ry     beta= 0.70
     Davidson diagonalization with overlap
     ethr =  5.23E-05,  avg # of iterations =  4.0

     total cpu time spent up to now is      453.7 secs

     total energy              =    -921.20679039 Ry
     Harris-Foulkes estimate   =    -921.21861053 Ry
     estimated scf accuracy    <       0.06382720 Ry

     iteration #  8     ecut=    50.00 Ry     beta= 0.70
     Davidson diagonalization with overlap
     ethr =  5.23E-05,  avg # of iterations =  1.0

     total cpu time spent up to now is      453.9 secs

     total energy              =    -921.20149692 Ry
     Harris-Foulkes estimate   =    -921.20838033 Ry
     estimated scf accuracy    <       0.03359374 Ry

     iteration #  9     ecut=    50.00 Ry     beta= 0.70
     Davidson diagonalization with overlap
     ethr =  3.00E-05,  avg # of iterations =  4.0

     total cpu time spent up to now is      454.3 secs

     total energy              =    -921.20832030 Ry
     Harris-Foulkes estimate   =    -921.20864758 Ry
     estimated scf accuracy    <       0.00144124 Ry

     iteration # 10     ecut=    50.00 Ry     beta= 0.70
     Davidson diagonalization with overlap
     ethr =  1.29E-06,  avg # of iterations =  4.2

     total cpu time spent up to now is      454.6 secs

     total energy              =    -921.20843031 Ry
     Harris-Foulkes estimate   =    -921.20857961 Ry
     estimated scf accuracy    <       0.00067531 Ry

     iteration # 11     ecut=    50.00 Ry     beta= 0.70
     Davidson diagonalization with overlap
     ethr =  6.03E-07,  avg # of iterations =  4.0

     total cpu time spent up to now is      455.0 secs

     total energy              =    -921.20856847 Ry
     Harris-Foulkes estimate   =    -921.20857214 Ry
     estimated scf accuracy    <       0.00001989 Ry

     iteration # 12     ecut=    50.00 Ry     beta= 0.70
     Davidson diagonalization with overlap
     ethr =  1.78E-08,  avg # of iterations =  4.2

     total cpu time spent up to now is      455.4 secs

     total energy              =    -921.20857084 Ry
     Harris-Foulkes estimate   =    -921.20857390 Ry
     estimated scf accuracy    <       0.00002102 Ry

     iteration # 13     ecut=    50.00 Ry     beta= 0.70
     Davidson diagonalization with overlap
     ethr =  1.78E-08,  avg # of iterations =  1.0

     total cpu time spent up to now is      455.5 secs

     total energy              =    -921.20856978 Ry
     Harris-Foulkes estimate   =    -921.20857130 Ry
     estimated scf accuracy    <       0.00001284 Ry

     iteration # 14     ecut=    50.00 Ry     beta= 0.70
     Davidson diagonalization with overlap
     ethr =  1.15E-08,  avg # of iterations =  3.5

     total cpu time spent up to now is      455.8 secs

     total energy              =    -921.20857014 Ry
     Harris-Foulkes estimate   =    -921.20857054 Ry
     estimated scf accuracy    <       0.00000545 Ry

     iteration # 15     ecut=    50.00 Ry     beta= 0.70
     Davidson diagonalization with overlap
     ethr =  4.87E-09,  avg # of iterations =  4.0

     total cpu time spent up to now is      456.2 secs

     total energy              =    -921.20857130 Ry
     Harris-Foulkes estimate   =    -921.20857122 Ry
     estimated scf accuracy    <       0.00000045 Ry

     iteration # 16     ecut=    50.00 Ry     beta= 0.70
     Davidson diagonalization with overlap
     ethr =  4.05E-10,  avg # of iterations =  4.2

     total cpu time spent up to now is      456.5 secs

     total energy              =    -921.20857104 Ry
     Harris-Foulkes estimate   =    -921.20857139 Ry
     estimated scf accuracy    <       0.00000091 Ry

     iteration # 17     ecut=    50.00 Ry     beta= 0.70
     Davidson diagonalization with overlap
     ethr =  4.05E-10,  avg # of iterations =  4.8

     total cpu time spent up to now is      457.0 secs

     total energy              =    -921.20857120 Ry
     Harris-Foulkes estimate   =    -921.20857120 Ry
     estimated scf accuracy    <       0.00000008 Ry

     iteration # 18     ecut=    50.00 Ry     beta= 0.70
     Davidson diagonalization with overlap
     ethr =  7.18E-11,  avg # of iterations =  2.0

     total cpu time spent up to now is      457.2 secs

     total energy              =    -921.20857120 Ry
     Harris-Foulkes estimate   =    -921.20857120 Ry
     estimated scf accuracy    <       0.00000008 Ry

     iteration # 19     ecut=    50.00 Ry     beta= 0.70
     Davidson diagonalization with overlap
     ethr =  6.91E-11,  avg # of iterations =  1.0

     total cpu time spent up to now is      457.4 secs

     total energy              =    -921.20857119 Ry
     Harris-Foulkes estimate   =    -921.20857120 Ry
     estimated scf accuracy    <       0.00000006 Ry

     iteration # 20     ecut=    50.00 Ry     beta= 0.70
     Davidson diagonalization with overlap
     ethr =  5.52E-11,  avg # of iterations =  2.8

     total cpu time spent up to now is      457.7 secs

     total energy              =    -921.20857119 Ry
     Harris-Foulkes estimate   =    -921.20857119 Ry
     estimated scf accuracy    <       0.00000003 Ry

     iteration # 21     ecut=    50.00 Ry     beta= 0.70
     Davidson diagonalization with overlap
     ethr =  3.10E-11,  avg # of iterations =  2.5

     total cpu time spent up to now is      457.9 secs

     total energy              =    -921.20857119 Ry
     Harris-Foulkes estimate   =    -921.20857119 Ry
     estimated scf accuracy    <       0.00000002 Ry

     iteration # 22     ecut=    50.00 Ry     beta= 0.70
     Davidson diagonalization with overlap
     ethr =  2.13E-11,  avg # of iterations =  1.0

     total cpu time spent up to now is      458.1 secs

     total energy              =    -921.20857119 Ry
     Harris-Foulkes estimate   =    -921.20857119 Ry
     estimated scf accuracy    <       0.00000002 Ry

     iteration # 23     ecut=    50.00 Ry     beta= 0.70
     Davidson diagonalization with overlap
     ethr =  1.84E-11,  avg # of iterations =  1.0

     total cpu time spent up to now is      458.3 secs

     total energy              =    -921.20857119 Ry
     Harris-Foulkes estimate   =    -921.20857119 Ry
     estimated scf accuracy    <       0.00000002 Ry

     iteration # 24     ecut=    50.00 Ry     beta= 0.70
     Davidson diagonalization with overlap
     ethr =  1.58E-11,  avg # of iterations =  3.8

     total cpu time spent up to now is      458.6 secs

     total energy              =    -921.20857119 Ry
     Harris-Foulkes estimate   =    -921.20857119 Ry
     estimated scf accuracy    <          1.2E-09 Ry

     iteration # 25     ecut=    50.00 Ry     beta= 0.70
     Davidson diagonalization with overlap
     ethr =  1.11E-12,  avg # of iterations =  4.2

     total cpu time spent up to now is      459.0 secs

     total energy              =    -921.20857119 Ry
     Harris-Foulkes estimate   =    -921.20857119 Ry
     estimated scf accuracy    <          6.8E-10 Ry

     iteration # 26     ecut=    50.00 Ry     beta= 0.70
     Davidson diagonalization with overlap
     ethr =  6.04E-13,  avg # of iterations =  3.2

     total cpu time spent up to now is      459.2 secs

     total energy              =    -921.20857119 Ry
     Harris-Foulkes estimate   =    -921.20857119 Ry
     estimated scf accuracy    <          2.5E-10 Ry

     iteration # 27     ecut=    50.00 Ry     beta= 0.70
     Davidson diagonalization with overlap
     ethr =  2.21E-13,  avg # of iterations =  3.2

     total cpu time spent up to now is      459.5 secs

     total energy              =    -921.20857119 Ry
     Harris-Foulkes estimate   =    -921.20857119 Ry
     estimated scf accuracy    <          1.5E-10 Ry

     iteration # 28     ecut=    50.00 Ry     beta= 0.70
     Davidson diagonalization with overlap
     ethr =  1.37E-13,  avg # of iterations =  3.0

     total cpu time spent up to now is      459.7 secs

     total energy              =    -921.20857119 Ry
     Harris-Foulkes estimate   =    -921.20857119 Ry
     estimated scf accuracy    <          1.2E-10 Ry

     iteration # 29     ecut=    50.00 Ry     beta= 0.70
     Davidson diagonalization with overlap
     ethr =  1.10E-13,  avg # of iterations =  4.0

     total cpu time spent up to now is      460.1 secs

     total energy              =    -921.20857119 Ry
     Harris-Foulkes estimate   =    -921.20857119 Ry
     estimated scf accuracy    <          6.2E-11 Ry

     iteration # 30     ecut=    50.00 Ry     beta= 0.70
     Davidson diagonalization with overlap
     ethr =  1.00E-13,  avg # of iterations =  1.0

     total cpu time spent up to now is      460.3 secs

     total energy              =    -921.20857119 Ry
     Harris-Foulkes estimate   =    -921.20857119 Ry
     estimated scf accuracy    <          4.0E-11 Ry

     iteration # 31     ecut=    50.00 Ry     beta= 0.70
     Davidson diagonalization with overlap
     ethr =  1.00E-13,  avg # of iterations =  1.0

     total cpu time spent up to now is      460.5 secs

     total energy              =    -921.20857119 Ry
     Harris-Foulkes estimate   =    -921.20857119 Ry
     estimated scf accuracy    <          3.3E-11 Ry

     iteration # 32     ecut=    50.00 Ry     beta= 0.70
     Davidson diagonalization with overlap
     ethr =  1.00E-13,  avg # of iterations =  1.0

     total cpu time spent up to now is      460.7 secs

     total energy              =    -921.20857119 Ry
     Harris-Foulkes estimate   =    -921.20857119 Ry
     estimated scf accuracy    <          1.7E-11 Ry

     iteration # 33     ecut=    50.00 Ry     beta= 0.70
     Davidson diagonalization with overlap
     ethr =  1.00E-13,  avg # of iterations =  2.0

     total cpu time spent up to now is      461.0 secs

     total energy              =    -921.20857119 Ry
     Harris-Foulkes estimate   =    -921.20857119 Ry
     estimated scf accuracy    <          4.1E-12 Ry

     iteration # 34     ecut=    50.00 Ry     beta= 0.70
     Davidson diagonalization with overlap
     ethr =  1.00E-13,  avg # of iterations =  1.0

     total cpu time spent up to now is      461.2 secs

     total energy              =    -921.20857119 Ry
     Harris-Foulkes estimate   =    -921.20857119 Ry
     estimated scf accuracy    <          2.3E-12 Ry

     iteration # 35     ecut=    50.00 Ry     beta= 0.70
     Davidson diagonalization with overlap
     ethr =  1.00E-13,  avg # of iterations =  1.0

     total cpu time spent up to now is      461.4 secs

     total energy              =    -921.20857119 Ry
     Harris-Foulkes estimate   =    -921.20857119 Ry
     estimated scf accuracy    <          1.7E-12 Ry

     iteration # 36     ecut=    50.00 Ry     beta= 0.70
     Davidson diagonalization with overlap
     ethr =  1.00E-13,  avg # of iterations =  1.0

     total cpu time spent up to now is      461.6 secs

     total energy              =    -921.20857119 Ry
     Harris-Foulkes estimate   =    -921.20857119 Ry
     estimated scf accuracy    <          1.1E-12 Ry

     iteration # 37     ecut=    50.00 Ry     beta= 0.70
     Davidson diagonalization with overlap
     ethr =  1.00E-13,  avg # of iterations =  1.0

     total cpu time spent up to now is      461.8 secs

     End of self-consistent calculation

          k = 0.0000 0.0000 0.0000 (  5997 PWs)   bands (ev):

   -57.4948 -57.4916 -57.4754 -57.4723 -31.6660 -31.6519 -31.6342 -31.6184
   -31.6140 -31.5407 -31.4975 -31.4803 -31.4772 -31.4269 -31.4240 -31.4209
   -11.6925 -11.5213 -10.4153 -10.3081 -10.0244  -9.8651  -9.3681  -9.3340
    -9.2298  -9.1529   1.7563   1.7698   1.7886   1.8352   2.2724   2.5878
     3.0407   3.3448   3.6268   3.8786   4.0141   4.2849   4.4079   4.5077
     4.5248   4.6017   4.6487   4.8610   4.9448   4.9762   5.1462   5.1922
     5.3853   5.4714   5.5647   5.7070   5.8099   5.8228   5.8770   6.1520

          k = 0.0000 0.2935 0.0000 (  6027 PWs)   bands (ev):

   -57.4992 -57.4953 -57.4795 -57.4745 -31.6727 -31.6602 -31.6491 -31.6326
   -31.6136 -31.5392 -31.4985 -31.4800 -31.4777 -31.4279 -31.4252 -31.4216
   -11.5043 -11.3564 -10.2793 -10.2312  -9.9801  -9.8279  -9.3474  -9.3152
    -9.0482  -9.0161   1.5864   1.6039   1.6442   1.6540   1.7376   1.8220
     2.2641   2.4420   2.4770   2.7609   3.2714   3.3971   3.4503   4.3739
     4.4314   4.4466   4.7259   4.7348   5.0389   5.4721   5.4888   5.5416
     5.6585   6.0126   6.0238   6.0469   6.0906   6.2364   6.4971   6.7314

          k = 0.3484 0.0000 0.0000 (  6022 PWs)   bands (ev):

   -57.4962 -57.4891 -57.4766 -57.4754 -31.6550 -31.6445 -31.6279 -31.6175
   -31.6143 -31.5966 -31.5682 -31.5625 -31.4836 -31.4813 -31.4546 -31.4299
   -10.9837 -10.7914 -10.1349 -10.0316 -10.0157  -9.8107  -9.3475  -9.3237
    -9.2716  -9.2086   1.2344   1.3587   1.8027   2.2027   2.3963   2.4927
     2.6937   3.0293   3.1449   3.6038   3.7475   3.8518   4.2020   4.2405
     4.3645   4.3720   4.5454   4.5815   4.7891   5.1466   5.2492   5.2799
     5.2871   5.3958   5.4767   5.5495   5.5553   5.8797   6.0137   6.3999

          k = 0.3484 0.2935 0.0000 (  6018 PWs)   bands (ev):

   -57.4928 -57.4863 -57.4781 -57.4774 -31.6616 -31.6532 -31.6397 -31.6293
   -31.6157 -31.5964 -31.5674 -31.5613 -31.4831 -31.4817 -31.4548 -31.4304
   -10.8273 -10.6715 -10.0834 -10.0226  -9.9095  -9.7708  -9.2227  -9.1981
    -9.0777  -9.0588   1.1581   1.2725   1.6244   1.9198   1.9605   2.0275
     2.3313   2.3584   2.4451   2.6098   2.7269   3.0848   3.4994   3.5922
     3.8589   4.0116   4.1911   4.1988   4.5723   5.0239   5.3224   5.5093
     5.7581   5.8337   6.2078   6.2307   6.3848   6.4368   6.6405   6.7077

     highest occupied level (ev):     6.7314

!    total energy              =    -921.20857119 Ry
     Harris-Foulkes estimate   =    -921.20857119 Ry
     estimated scf accuracy    <          4.0E-13 Ry

     The total energy is the sum of the following terms:

     one-electron contribution =    -484.79251473 Ry
     hartree contribution      =     292.08476786 Ry
     xc contribution           =    -174.78603233 Ry
     ewald contribution        =    -553.55567025 Ry
     Dispersion Correction     =      -0.15912174 Ry

     convergence has been achieved in  37 iterations

     Forces acting on atoms (cartesian axes, Ry/au):

     atom    1 type  1   force =     0.00000000   -0.00118501   -0.01233634
     atom    2 type  1   force =     0.00000000    0.00118501    0.01233634
     atom    3 type  1   force =     0.00000000    0.00118501   -0.01233634
     atom    4 type  1   force =     0.00000000   -0.00118501    0.01233634
     atom    5 type  2   force =     0.00000000   -0.00512598   -0.00201279
     atom    6 type  2   force =     0.00000000    0.00512598    0.00201279
     atom    7 type  2   force =     0.00000000    0.00512598   -0.00201279
     atom    8 type  2   force =     0.00000000   -0.00512598    0.00201279
     atom    9 type  2   force =     0.00000000    0.00707766   -0.00031176
     atom   10 type  2   force =     0.00000000   -0.00707766    0.00031176
     atom   11 type  2   force =    -0.00000000   -0.00707766   -0.00031176
     atom   12 type  2   force =     0.00000000    0.00654924   -0.00000000
     atom   13 type  2   force =     0.00000000   -0.00654924    0.00000000
     atom   14 type  2   force =     0.00000000    0.00707766    0.00031176

     Total force =     0.031972     Total SCF correction =     0.000001


     Computing stress (Cartesian axis) and pressure

          total   stress  (Ry/bohr**3)                   (kbar)     P= -345.65
  -0.00216584   0.00000000   0.00000000       -318.61      0.00      0.00
   0.00000000  -0.00273197   0.00000000          0.00   -401.89      0.00
   0.00000000   0.00000000  -0.00215115          0.00      0.00   -316.45


     Writing output data file v2o5.save/

     init_run     :      0.61s CPU      0.64s WALL (       2 calls)
     electrons    :    414.23s CPU    425.79s WALL (      31 calls)
     update_pot   :      8.78s CPU      8.81s WALL (      29 calls)
     forces       :     10.21s CPU     10.32s WALL (      31 calls)
     stress       :     15.79s CPU     15.82s WALL (      31 calls)

     Called by init_run:
     wfcinit      :      0.28s CPU      0.30s WALL (       2 calls)
     potinit      :      0.11s CPU      0.11s WALL (       2 calls)
     hinit0       :      0.21s CPU      0.22s WALL (       2 calls)

     Called by electrons:
     c_bands      :    392.43s CPU    402.92s WALL (     768 calls)
     sum_band     :     16.32s CPU     17.16s WALL (     768 calls)
     v_of_rho     :      2.05s CPU      2.06s WALL (     790 calls)
     mix_rho      :      1.21s CPU      1.23s WALL (     768 calls)

     Called by c_bands:
     init_us_2    :      2.14s CPU      2.46s WALL (    6400 calls)
     cegterg      :    384.93s CPU    393.92s WALL (    3072 calls)

     Called by sum_band:

     Called by *egterg:
     h_psi        :    171.54s CPU    176.54s WALL (   13348 calls)
     g_psi        :      0.51s CPU      0.52s WALL (   10268 calls)
     cdiaghg      :    108.61s CPU    110.98s WALL (   13188 calls)

     Called by h_psi:
     h_psi:pot    :    170.37s CPU    175.30s WALL (   13348 calls)
     h_psi:calbec :     53.26s CPU     55.09s WALL (   13348 calls)
     vloc_psi     :     80.99s CPU     83.78s WALL (   13348 calls)
     add_vuspsi   :     36.07s CPU     36.38s WALL (   13348 calls)

     General routines
     calbec       :     57.40s CPU     59.36s WALL (   13968 calls)
     fft          :      1.66s CPU      1.67s WALL (    8682 calls)
     ffts         :      0.12s CPU      0.13s WALL (     768 calls)
     fftw         :     87.23s CPU     90.41s WALL ( 1120380 calls)

     Parallel routines
     fft_scatt_xy :      6.72s CPU      6.95s WALL ( 1129830 calls)
     fft_scatt_yz :     58.53s CPU     60.75s WALL ( 1129830 calls)

     PWSCF        :   7m30.43s CPU   7m42.32s WALL


   This run was terminated on:  21: 2:33  17May2024            

=------------------------------------------------------------------------------=
   JOB DONE.
=------------------------------------------------------------------------------=
