
     Program PWSCF v.6.4.1 starts on 18May2024 at 20:25:21 

     This program is part of the open-source Quantum ESPRESSO suite
     for quantum simulation of materials; please cite
         "P. Giannozzi et al., J. Phys.:Condens. Matter 21 395502 (2009);
         "P. Giannozzi et al., J. Phys.:Condens. Matter 29 465901 (2017);
          URL http://www.quantum-espresso.org", 
     in publications or presentations arising from this work. More details at
     http://www.quantum-espresso.org/quote

     Parallel version (MPI), running on    32 processors

     MPI processes distributed on     1 nodes
     R & G space division:  proc/nbgrp/npool/nimage =      32
     Reading input from v2o5.vc-rlx.in

     Current dimensions of program PWSCF are:
     Max number of different atomic species (ntypx) = 10
     Max number of k-points (npk) =  40000
     Max angular momentum in pseudopotentials (lmaxx) =  3

     -------------------------------------------------
     Parameters for Dispersion (Grimme-D2) Correction:
     -------------------------------------------------
       atom      VdW radius       C_6     

        V          2.952        374.666
        O          2.536         24.284

     Subspace diagonalization in iterative solution of the eigenvalue problem:
     one sub-group per band group will be used
     ELPA distributed-memory algorithm (size of sub-group:  4*  4 procs)


     Parallelization info
     --------------------
     sticks:   dense  smooth     PW     G-vecs:    dense   smooth      PW
     Min          42      42     11                 3380     3380     479
     Max          45      45     12                 3386     3386     492
     Sum        1347    1347    371               108255   108255   15517



     bravais-lattice index     =            8
     lattice parameter (alat)  =       6.6827  a.u.
     unit-cell volume          =    1233.5773 (a.u.)^3
     number of atoms/cell      =           14
     number of atomic types    =            2
     number of electrons       =       112.00
     number of Kohn-Sham states=           56
     kinetic-energy cutoff     =      75.0000  Ry
     charge density cutoff     =     300.0000  Ry
     convergence threshold     =      1.0E-10
     mixing beta               =       0.7000
     number of iterations used =            8  plain     mixing
     Exchange-correlation      = PBE ( 1  4  3  4 0 0)
     nstep                     =          500


     celldm(1)=   6.682682  celldm(2)=   1.263659  celldm(3)=   3.271025
     celldm(4)=   0.000000  celldm(5)=   0.000000  celldm(6)=   0.000000

     crystal axes: (cart. coord. in units of alat)
               a(1) = (   1.000000   0.000000   0.000000 )  
               a(2) = (   0.000000   1.263659   0.000000 )  
               a(3) = (   0.000000   0.000000   3.271025 )  

     reciprocal axes: (cart. coord. in units 2 pi/alat)
               b(1) = (  1.000000  0.000000  0.000000 )  
               b(2) = (  0.000000  0.791352  0.000000 )  
               b(3) = (  0.000000  0.000000  0.305715 )  


     PseudoPot. # 1 for V  read from file:
     /home/mpicuntureo/pseudos/v.nc.upf
     MD5 check sum: 40fb93c06b4f9d8c28c5ccd071294a04
     Pseudo is Norm-conserving + core correction, Zval = 13.0
     Generated using ONCVPSP code by D. R. Hamann
     Using radial grid of 1536 points,  6 beta functions with: 
                l(1) =   0
                l(2) =   0
                l(3) =   1
                l(4) =   1
                l(5) =   2
                l(6) =   2

     PseudoPot. # 2 for O  read from file:
     /home/mpicuntureo/pseudos/o.nc.upf
     MD5 check sum: 3e3f909f7470e8921608ab6b1f57bbae
     Pseudo is Norm-conserving + core correction, Zval =  6.0
     Generated using ONCVPSP code by D. R. Hamann
     Using radial grid of  936 points,  5 beta functions with: 
                l(1) =   0
                l(2) =   0
                l(3) =   1
                l(4) =   1
                l(5) =   2

     atomic species   valence    mass     pseudopotential
        V             13.00    50.94150     V ( 1.00)
        O              6.00    15.99940     O ( 1.00)

      8 Sym. Ops., with inversion, found ( 4 have fractional translation)



   Cartesian axes

     site n.     atom                  positions (alat units)
         1           V   tau(   1) = (   0.0000000   0.4838420   2.1198804  )
         2           V   tau(   2) = (   0.5000000   0.7798175   2.7866567  )
         3           V   tau(   3) = (   0.5000000   0.7798175   0.4843680  )
         4           V   tau(   4) = (   0.0000000   0.4838420   1.1511443  )
         5           O   tau(   5) = (   0.5000000   0.6221939   2.2285187  )
         6           O   tau(   6) = (   0.0000000   0.6414656   2.6780184  )
         7           O   tau(   7) = (   0.0000000   0.6414656   0.5930063  )
         8           O   tau(   8) = (   0.5000000   0.6221939   1.0425060  )
         9           O   tau(   9) = (   0.0000000   0.0364742   1.1584929  )
        10           O   tau(  10) = (   0.5000000   1.2271853   0.4770194  )
        11           O   tau(  11) = (   0.5000000   1.2271853   2.7940053  )
        12           O   tau(  12) = (   0.5000000   0.6433842   0.0000000  )
        13           O   tau(  13) = (   0.0000000   0.6202753   1.6355124  )
        14           O   tau(  14) = (   0.0000000   0.0364742   2.1125318  )

     number of k points=     4
                       cart. coord. in units 2pi/alat
        k(    1) = (   0.0000000   0.0000000   0.0000000), wk =   0.2222222
        k(    2) = (   0.0000000   0.2637841   0.0000000), wk =   0.4444444
        k(    3) = (   0.3333333   0.0000000   0.0000000), wk =   0.4444444
        k(    4) = (   0.3333333   0.2637841   0.0000000), wk =   0.8888889

     Dense  grid:   108255 G-vectors     FFT dimensions: (  40,  48, 128)

     Estimated max dynamical RAM per process >      14.26 MB

     Estimated total dynamical RAM >     456.27 MB

     Check: negative core charge=   -0.000003

     Initial potential from superposition of free atoms

     starting charge  111.99579, renormalised to  112.00000
     Starting wfcs are   80 randomized atomic wfcs

     total cpu time spent up to now is        0.9 secs

     Self-consistent Calculation

     iteration #  1     ecut=    75.00 Ry     beta= 0.70
     Davidson diagonalization with overlap
     ethr =  1.00E-02,  avg # of iterations =  2.0

     total cpu time spent up to now is        1.5 secs

     total energy              =    -917.44438742 Ry
     Harris-Foulkes estimate   =    -923.62000091 Ry
     estimated scf accuracy    <       7.75266693 Ry

     iteration #  2     ecut=    75.00 Ry     beta= 0.70
     Davidson diagonalization with overlap
     ethr =  6.92E-03,  avg # of iterations =  6.2

     total cpu time spent up to now is        2.5 secs

     total energy              =    -908.09830560 Ry
     Harris-Foulkes estimate   =    -938.52854072 Ry
     estimated scf accuracy    <     136.25054107 Ry

     iteration #  3     ecut=    75.00 Ry     beta= 0.70
     Davidson diagonalization with overlap
     ethr =  6.92E-03,  avg # of iterations =  5.8

     total cpu time spent up to now is        3.5 secs

     total energy              =    -921.90804969 Ry
     Harris-Foulkes estimate   =    -922.67313011 Ry
     estimated scf accuracy    <       2.55966248 Ry

     iteration #  4     ecut=    75.00 Ry     beta= 0.70
     Davidson diagonalization with overlap
     ethr =  2.29E-03,  avg # of iterations =  3.8

     total cpu time spent up to now is        3.9 secs

     total energy              =    -922.06336925 Ry
     Harris-Foulkes estimate   =    -922.19487616 Ry
     estimated scf accuracy    <       0.84014564 Ry

     iteration #  5     ecut=    75.00 Ry     beta= 0.70
     Davidson diagonalization with overlap
     ethr =  7.50E-04,  avg # of iterations =  4.0

     total cpu time spent up to now is        4.4 secs

     total energy              =    -922.00137456 Ry
     Harris-Foulkes estimate   =    -922.12592089 Ry
     estimated scf accuracy    <       0.42413594 Ry

     iteration #  6     ecut=    75.00 Ry     beta= 0.70
     Davidson diagonalization with overlap
     ethr =  3.79E-04,  avg # of iterations =  4.0

     total cpu time spent up to now is        5.0 secs

     total energy              =    -922.12924916 Ry
     Harris-Foulkes estimate   =    -922.14484367 Ry
     estimated scf accuracy    <       0.18172075 Ry

     iteration #  7     ecut=    75.00 Ry     beta= 0.70
     Davidson diagonalization with overlap
     ethr =  1.62E-04,  avg # of iterations =  2.0

     total cpu time spent up to now is        5.4 secs

     total energy              =    -922.10272981 Ry
     Harris-Foulkes estimate   =    -922.13153977 Ry
     estimated scf accuracy    <       0.14084684 Ry

     iteration #  8     ecut=    75.00 Ry     beta= 0.70
     Davidson diagonalization with overlap
     ethr =  1.26E-04,  avg # of iterations =  3.5

     total cpu time spent up to now is        5.9 secs

     total energy              =    -922.12050626 Ry
     Harris-Foulkes estimate   =    -922.12148835 Ry
     estimated scf accuracy    <       0.00225370 Ry

     iteration #  9     ecut=    75.00 Ry     beta= 0.70
     Davidson diagonalization with overlap
     ethr =  2.01E-06,  avg # of iterations =  5.8

     total cpu time spent up to now is        6.8 secs

     total energy              =    -922.12297578 Ry
     Harris-Foulkes estimate   =    -922.12328703 Ry
     estimated scf accuracy    <       0.00148327 Ry

     iteration # 10     ecut=    75.00 Ry     beta= 0.70
     Davidson diagonalization with overlap
     ethr =  1.32E-06,  avg # of iterations =  4.0

     total cpu time spent up to now is        7.3 secs

     total energy              =    -922.12304853 Ry
     Harris-Foulkes estimate   =    -922.12316529 Ry
     estimated scf accuracy    <       0.00055474 Ry

     iteration # 11     ecut=    75.00 Ry     beta= 0.70
     Davidson diagonalization with overlap
     ethr =  4.95E-07,  avg # of iterations =  2.2

     total cpu time spent up to now is        7.7 secs

     total energy              =    -922.12300416 Ry
     Harris-Foulkes estimate   =    -922.12307044 Ry
     estimated scf accuracy    <       0.00023957 Ry

     iteration # 12     ecut=    75.00 Ry     beta= 0.70
     Davidson diagonalization with overlap
     ethr =  2.14E-07,  avg # of iterations =  4.0

     total cpu time spent up to now is        8.3 secs

     total energy              =    -922.12307901 Ry
     Harris-Foulkes estimate   =    -922.12309592 Ry
     estimated scf accuracy    <       0.00013929 Ry

     iteration # 13     ecut=    75.00 Ry     beta= 0.70
     Davidson diagonalization with overlap
     ethr =  1.24E-07,  avg # of iterations =  1.0

     total cpu time spent up to now is        8.6 secs

     total energy              =    -922.12307001 Ry
     Harris-Foulkes estimate   =    -922.12308084 Ry
     estimated scf accuracy    <       0.00008949 Ry

     iteration # 14     ecut=    75.00 Ry     beta= 0.70
     Davidson diagonalization with overlap
     ethr =  7.99E-08,  avg # of iterations =  2.5

     total cpu time spent up to now is        9.0 secs

     total energy              =    -922.12306754 Ry
     Harris-Foulkes estimate   =    -922.12307349 Ry
     estimated scf accuracy    <       0.00004044 Ry

     iteration # 15     ecut=    75.00 Ry     beta= 0.70
     Davidson diagonalization with overlap
     ethr =  3.61E-08,  avg # of iterations =  4.0

     total cpu time spent up to now is        9.6 secs

     total energy              =    -922.12308052 Ry
     Harris-Foulkes estimate   =    -922.12308082 Ry
     estimated scf accuracy    <       0.00001081 Ry

     iteration # 16     ecut=    75.00 Ry     beta= 0.70
     Davidson diagonalization with overlap
     ethr =  9.65E-09,  avg # of iterations =  3.0

     total cpu time spent up to now is       10.0 secs

     total energy              =    -922.12307831 Ry
     Harris-Foulkes estimate   =    -922.12308078 Ry
     estimated scf accuracy    <       0.00001117 Ry

     iteration # 17     ecut=    75.00 Ry     beta= 0.70
     Davidson diagonalization with overlap
     ethr =  9.65E-09,  avg # of iterations =  3.8

     total cpu time spent up to now is       10.5 secs

     total energy              =    -922.12307939 Ry
     Harris-Foulkes estimate   =    -922.12307940 Ry
     estimated scf accuracy    <       0.00000026 Ry

     iteration # 18     ecut=    75.00 Ry     beta= 0.70
     Davidson diagonalization with overlap
     ethr =  2.30E-10,  avg # of iterations =  5.0

     total cpu time spent up to now is       11.2 secs

     total energy              =    -922.12307958 Ry
     Harris-Foulkes estimate   =    -922.12307959 Ry
     estimated scf accuracy    <       0.00000002 Ry

     iteration # 19     ecut=    75.00 Ry     beta= 0.70
     Davidson diagonalization with overlap
     ethr =  1.38E-11,  avg # of iterations =  5.0

     total cpu time spent up to now is       11.8 secs

     total energy              =    -922.12307959 Ry
     Harris-Foulkes estimate   =    -922.12307959 Ry
     estimated scf accuracy    <          7.5E-09 Ry

     iteration # 20     ecut=    75.00 Ry     beta= 0.70
     Davidson diagonalization with overlap
     ethr =  6.70E-12,  avg # of iterations =  3.8

     total cpu time spent up to now is       12.3 secs

     total energy              =    -922.12307959 Ry
     Harris-Foulkes estimate   =    -922.12307959 Ry
     estimated scf accuracy    <          9.3E-09 Ry

     iteration # 21     ecut=    75.00 Ry     beta= 0.70
     Davidson diagonalization with overlap
     ethr =  6.70E-12,  avg # of iterations =  4.0

     total cpu time spent up to now is       12.8 secs

     total energy              =    -922.12307959 Ry
     Harris-Foulkes estimate   =    -922.12307959 Ry
     estimated scf accuracy    <          3.1E-09 Ry

     iteration # 22     ecut=    75.00 Ry     beta= 0.70
     Davidson diagonalization with overlap
     ethr =  2.78E-12,  avg # of iterations =  4.2

     total cpu time spent up to now is       13.4 secs

     total energy              =    -922.12307959 Ry
     Harris-Foulkes estimate   =    -922.12307959 Ry
     estimated scf accuracy    <       0.00000001 Ry

     iteration # 23     ecut=    75.00 Ry     beta= 0.70
     Davidson diagonalization with overlap
     ethr =  2.78E-12,  avg # of iterations =  1.0

     total cpu time spent up to now is       13.8 secs

     total energy              =    -922.12307959 Ry
     Harris-Foulkes estimate   =    -922.12307959 Ry
     estimated scf accuracy    <          9.0E-09 Ry

     iteration # 24     ecut=    75.00 Ry     beta= 0.70
     Davidson diagonalization with overlap
     ethr =  2.78E-12,  avg # of iterations =  3.8

     total cpu time spent up to now is       14.3 secs

     total energy              =    -922.12307959 Ry
     Harris-Foulkes estimate   =    -922.12307959 Ry
     estimated scf accuracy    <          1.7E-09 Ry

     iteration # 25     ecut=    75.00 Ry     beta= 0.70
     Davidson diagonalization with overlap
     ethr =  1.52E-12,  avg # of iterations =  4.0

     total cpu time spent up to now is       14.7 secs

     total energy              =    -922.12307959 Ry
     Harris-Foulkes estimate   =    -922.12307959 Ry
     estimated scf accuracy    <          7.3E-10 Ry

     iteration # 26     ecut=    75.00 Ry     beta= 0.70
     Davidson diagonalization with overlap
     ethr =  6.55E-13,  avg # of iterations =  3.8

     total cpu time spent up to now is       15.2 secs

     End of self-consistent calculation

          k = 0.0000 0.0000 0.0000 ( 13489 PWs)   bands (ev):

   -59.9668 -59.9649 -59.9560 -59.9539 -34.0036 -34.0012 -33.9944 -33.9889
   -33.9094 -33.8561 -33.8295 -33.7998 -33.7974 -33.7787 -33.7655 -33.7630
   -13.5397 -13.4163 -12.4502 -12.3234 -12.2382 -12.1963 -11.8145 -11.8101
   -11.6517 -11.6315  -0.4148  -0.4017  -0.3570  -0.2459  -0.0690   0.3664
     1.0612   1.1089   1.3407   1.3451   1.5784   1.6166   1.8689   1.8701
     1.9083   2.0053   2.0830   2.0923   2.1925   2.2820   2.3778   2.5116
     2.5195   2.9111   3.0328   3.0601   3.1095   3.3294   3.3603   3.4251

          k = 0.0000 0.2638 0.0000 ( 13533 PWs)   bands (ev):

   -59.9667 -59.9648 -59.9560 -59.9541 -34.0053 -34.0029 -33.9977 -33.9920
   -33.9090 -33.8557 -33.8295 -33.7997 -33.7972 -33.7787 -33.7655 -33.7630
   -13.4669 -13.3540 -12.3866 -12.2961 -12.2351 -12.1777 -11.8230 -11.8003
   -11.6230 -11.5980  -0.4608  -0.4474  -0.3939  -0.2899  -0.2369   0.0395
     0.2960   0.4757   0.5188   0.6664   1.1626   1.3048   1.3622   1.8078
     1.8623   2.0703   2.2207   2.3175   2.4815   2.5481   2.6885   2.7950
     3.0416   3.0489   3.0940   3.2108   3.2291   3.5090   3.5824   3.7237

          k = 0.3333 0.0000 0.0000 ( 13532 PWs)   bands (ev):

   -59.9623 -59.9604 -59.9570 -59.9550 -33.9977 -33.9953 -33.9921 -33.9878
   -33.9057 -33.8784 -33.8655 -33.8559 -33.8096 -33.8041 -33.7884 -33.7777
   -12.9618 -12.8204 -12.3471 -12.1823 -12.1722 -12.1468 -11.7533 -11.7429
   -11.7108 -11.6684  -0.9220  -0.8453  -0.0954  -0.0907   0.0331   0.3636
     0.4915   0.8755   0.8810   1.1801   1.2153   1.2524   1.6198   1.7569
     1.7670   1.9318   2.0100   2.0274   2.1113   2.1753   2.2683   2.3174
     2.3504   2.7518   3.0386   3.1218   3.2060   3.3949   3.5728   3.6401

          k = 0.3333 0.2638 0.0000 ( 13519 PWs)   bands (ev):

   -59.9623 -59.9604 -59.9569 -59.9550 -33.9997 -33.9972 -33.9948 -33.9905
   -33.9054 -33.8782 -33.8651 -33.8556 -33.8096 -33.8041 -33.7884 -33.7778
   -12.8985 -12.7732 -12.3059 -12.1791 -12.1559 -12.1310 -11.7399 -11.7205
   -11.6421 -11.6243  -0.9242  -0.8456  -0.1657  -0.1570  -0.0891   0.1623
     0.2645   0.4018   0.4495   0.6795   0.7365   0.9556   1.2983   1.3250
     1.4364   1.4755   1.6003   1.6957   1.8591   2.3013   2.5249   2.7183
     2.9907   2.9963   3.3804   3.5732   3.6006   3.7580   3.8027   3.8080

     highest occupied level (ev):     3.8080

!    total energy              =    -922.12307959 Ry
     Harris-Foulkes estimate   =    -922.12307959 Ry
     estimated scf accuracy    <          1.6E-11 Ry

     The total energy is the sum of the following terms:

     one-electron contribution =    -591.02461303 Ry
     hartree contribution      =     334.86993408 Ry
     xc contribution           =    -174.09675812 Ry
     ewald contribution        =    -491.74104654 Ry
     Dispersion Correction     =      -0.13059599 Ry

     convergence has been achieved in  26 iterations

     Forces acting on atoms (cartesian axes, Ry/au):

     atom    1 type  1   force =     0.00000000    0.00000349   -0.00003743
     atom    2 type  1   force =     0.00000000   -0.00000349    0.00003743
     atom    3 type  1   force =     0.00000000   -0.00000349   -0.00003743
     atom    4 type  1   force =     0.00000000    0.00000349    0.00003743
     atom    5 type  2   force =     0.00000000    0.00002850   -0.00000460
     atom    6 type  2   force =     0.00000000   -0.00002850    0.00000460
     atom    7 type  2   force =     0.00000000   -0.00002850   -0.00000460
     atom    8 type  2   force =     0.00000000    0.00002850    0.00000460
     atom    9 type  2   force =     0.00000000   -0.00007658   -0.00001084
     atom   10 type  2   force =     0.00000000    0.00007658    0.00001084
     atom   11 type  2   force =    -0.00000000    0.00007658   -0.00001084
     atom   12 type  2   force =     0.00000000    0.00000883   -0.00000000
     atom   13 type  2   force =     0.00000000   -0.00000883   -0.00000000
     atom   14 type  2   force =     0.00000000   -0.00007658    0.00001084

     Total force =     0.000182     Total SCF correction =     0.000013


     Computing stress (Cartesian axis) and pressure

          total   stress  (Ry/bohr**3)                   (kbar)     P=   -5.42
  -0.00003736   0.00000000   0.00000000         -5.50      0.00      0.00
   0.00000000  -0.00003689   0.00000000          0.00     -5.43      0.00
   0.00000000   0.00000000  -0.00003632          0.00      0.00     -5.34


     BFGS Geometry Optimization

     number of scf cycles    =   1
     number of bfgs steps    =   0

     enthalpy new            =    -922.1230795866 Ry

     new trust radius        =       0.0065611978 bohr
     new conv_thr            =            1.0E-10 Ry

     new unit-cell volume =   1230.17064 a.u.^3 (   182.29248 Ang^3 )
     density =      3.31356 g/cm^3

CELL_PARAMETERS (alat=  6.68268247)
   0.999065950   0.000000000   0.000000000
   0.000000000   1.262494123   0.000000000
   0.000000000   0.000000000   3.268055016

ATOMIC_POSITIONS (crystal)
V        0.000000000   0.382889939   0.648076667
V        0.500000002   0.617110065   0.851923338
V        0.500000002   0.617110065   0.148076666
V        0.000000000   0.382889939   0.351923336
O        0.500000002   0.492378058   0.681290478
O        0.000000000   0.507621946   0.818709527
O        0.000000000   0.507621946   0.181290477
O        0.500000002   0.492378058   0.318709525
O        0.000000000   0.028854853   0.354167699
O        0.500000002   0.971145151   0.145832304
O        0.500000002   0.971145151   0.854167700
O        0.500000002   0.509144666  -0.000000000
O        0.000000000   0.490855338   0.500000002
O        0.000000000   0.028854853   0.645832306



     Writing output data file v2o5.save/
     NEW-OLD atomic charge density approx. for the potential

     Check: negative core charge=   -0.000003
     extrapolated charge  111.68986, renormalised to  112.00000

     total cpu time spent up to now is       16.6 secs

     Self-consistent Calculation

     iteration #  1     ecut=    75.00 Ry     beta= 0.70
     Davidson diagonalization with overlap
     ethr =  1.00E-06,  avg # of iterations =  7.5

     total cpu time spent up to now is       17.6 secs

     total energy              =    -922.09551147 Ry
     Harris-Foulkes estimate   =    -923.46913792 Ry
     estimated scf accuracy    <       0.02698223 Ry

     iteration #  2     ecut=    75.00 Ry     beta= 0.70
     Davidson diagonalization with overlap
     ethr =  2.41E-05,  avg # of iterations =  5.0

     total cpu time spent up to now is       18.5 secs

     total energy              =    -922.08207592 Ry
     Harris-Foulkes estimate   =    -922.20436623 Ry
     estimated scf accuracy    <       0.57055053 Ry

     iteration #  3     ecut=    75.00 Ry     beta= 0.70
     Davidson diagonalization with overlap
     ethr =  2.41E-05,  avg # of iterations =  5.0

     total cpu time spent up to now is       19.4 secs

     total energy              =    -922.12381907 Ry
     Harris-Foulkes estimate   =    -922.12619549 Ry
     estimated scf accuracy    <       0.01764455 Ry

     iteration #  4     ecut=    75.00 Ry     beta= 0.70
     Davidson diagonalization with overlap
     ethr =  1.58E-05,  avg # of iterations =  1.0

     total cpu time spent up to now is       19.7 secs

     total energy              =    -922.12238457 Ry
     Harris-Foulkes estimate   =    -922.12406799 Ry
     estimated scf accuracy    <       0.01263200 Ry

     iteration #  5     ecut=    75.00 Ry     beta= 0.70
     Davidson diagonalization with overlap
     ethr =  1.13E-05,  avg # of iterations =  2.2

     total cpu time spent up to now is       20.1 secs

     total energy              =    -922.12300457 Ry
     Harris-Foulkes estimate   =    -922.12281616 Ry
     estimated scf accuracy    <       0.00529031 Ry

     iteration #  6     ecut=    75.00 Ry     beta= 0.70
     Davidson diagonalization with overlap
     ethr =  4.72E-06,  avg # of iterations =  2.0

     total cpu time spent up to now is       20.4 secs

     total energy              =    -922.12323885 Ry
     Harris-Foulkes estimate   =    -922.12318542 Ry
     estimated scf accuracy    <       0.00527932 Ry

     iteration #  7     ecut=    75.00 Ry     beta= 0.70
     Davidson diagonalization with overlap
     ethr =  4.71E-06,  avg # of iterations =  1.0

     total cpu time spent up to now is       20.7 secs

     total energy              =    -922.12328841 Ry
     Harris-Foulkes estimate   =    -922.12328761 Ry
     estimated scf accuracy    <       0.00479122 Ry

     iteration #  8     ecut=    75.00 Ry     beta= 0.70
     Davidson diagonalization with overlap
     ethr =  4.28E-06,  avg # of iterations =  1.0

     total cpu time spent up to now is       21.1 secs

     total energy              =    -922.12326094 Ry
     Harris-Foulkes estimate   =    -922.12332210 Ry
     estimated scf accuracy    <       0.00442795 Ry

     iteration #  9     ecut=    75.00 Ry     beta= 0.70
     Davidson diagonalization with overlap
     ethr =  3.95E-06,  avg # of iterations =  1.0

     total cpu time spent up to now is       21.4 secs

     total energy              =    -922.12313416 Ry
     Harris-Foulkes estimate   =    -922.12328925 Ry
     estimated scf accuracy    <       0.00393071 Ry

     iteration # 10     ecut=    75.00 Ry     beta= 0.70
     Davidson diagonalization with overlap
     ethr =  3.51E-06,  avg # of iterations =  1.0

     total cpu time spent up to now is       21.7 secs

     total energy              =    -922.12253837 Ry
     Harris-Foulkes estimate   =    -922.12316846 Ry
     estimated scf accuracy    <       0.00325117 Ry

     iteration # 11     ecut=    75.00 Ry     beta= 0.70
     Davidson diagonalization with overlap
     ethr =  2.90E-06,  avg # of iterations =  4.0

     total cpu time spent up to now is       22.3 secs

     total energy              =    -922.12314020 Ry
     Harris-Foulkes estimate   =    -922.12314950 Ry
     estimated scf accuracy    <       0.00033745 Ry

     iteration # 12     ecut=    75.00 Ry     beta= 0.70
     Davidson diagonalization with overlap
     ethr =  3.01E-07,  avg # of iterations =  4.5

     total cpu time spent up to now is       22.8 secs

     total energy              =    -922.12320884 Ry
     Harris-Foulkes estimate   =    -922.12317947 Ry
     estimated scf accuracy    <       0.00028833 Ry

     iteration # 13     ecut=    75.00 Ry     beta= 0.70
     Davidson diagonalization with overlap
     ethr =  2.57E-07,  avg # of iterations =  1.0

     total cpu time spent up to now is       23.1 secs

     total energy              =    -922.12326293 Ry
     Harris-Foulkes estimate   =    -922.12321116 Ry
     estimated scf accuracy    <       0.00036400 Ry

     iteration # 14     ecut=    75.00 Ry     beta= 0.70
     Davidson diagonalization with overlap
     ethr =  2.57E-07,  avg # of iterations =  4.5

     total cpu time spent up to now is       23.9 secs

     total energy              =    -922.12311056 Ry
     Harris-Foulkes estimate   =    -922.12350339 Ry
     estimated scf accuracy    <       0.00302993 Ry

     iteration # 15     ecut=    75.00 Ry     beta= 0.70
     Davidson diagonalization with overlap
     ethr =  2.57E-07,  avg # of iterations =  4.0

     total cpu time spent up to now is       24.6 secs

     total energy              =    -922.12316992 Ry
     Harris-Foulkes estimate   =    -922.12321745 Ry
     estimated scf accuracy    <       0.00061773 Ry

     iteration # 16     ecut=    75.00 Ry     beta= 0.70
     Davidson diagonalization with overlap
     ethr =  2.57E-07,  avg # of iterations =  1.0

     total cpu time spent up to now is       24.9 secs

     total energy              =    -922.12318593 Ry
     Harris-Foulkes estimate   =    -922.12317383 Ry
     estimated scf accuracy    <       0.00046687 Ry

     iteration # 17     ecut=    75.00 Ry     beta= 0.70
     Davidson diagonalization with overlap
     ethr =  2.57E-07,  avg # of iterations =  1.0

     total cpu time spent up to now is       25.2 secs

     total energy              =    -922.12315421 Ry
     Harris-Foulkes estimate   =    -922.12318734 Ry
     estimated scf accuracy    <       0.00048109 Ry

     iteration # 18     ecut=    75.00 Ry     beta= 0.70
     Davidson diagonalization with overlap
     ethr =  2.57E-07,  avg # of iterations =  1.0

     total cpu time spent up to now is       25.6 secs

     total energy              =    -922.12308083 Ry
     Harris-Foulkes estimate   =    -922.12315766 Ry
     estimated scf accuracy    <       0.00033499 Ry

     iteration # 19     ecut=    75.00 Ry     beta= 0.70
     Davidson diagonalization with overlap
     ethr =  2.57E-07,  avg # of iterations =  4.0

     total cpu time spent up to now is       26.2 secs

     total energy              =    -922.12314153 Ry
     Harris-Foulkes estimate   =    -922.12315096 Ry
     estimated scf accuracy    <       0.00004089 Ry

     iteration # 20     ecut=    75.00 Ry     beta= 0.70
     Davidson diagonalization with overlap
     ethr =  3.65E-08,  avg # of iterations =  4.0

     total cpu time spent up to now is       26.6 secs

     total energy              =    -922.12314316 Ry
     Harris-Foulkes estimate   =    -922.12314517 Ry
     estimated scf accuracy    <       0.00000688 Ry

     iteration # 21     ecut=    75.00 Ry     beta= 0.70
     Davidson diagonalization with overlap
     ethr =  6.14E-09,  avg # of iterations =  4.5

     total cpu time spent up to now is       27.4 secs

     total energy              =    -922.12314784 Ry
     Harris-Foulkes estimate   =    -922.12314745 Ry
     estimated scf accuracy    <       0.00000751 Ry

     iteration # 22     ecut=    75.00 Ry     beta= 0.70
     Davidson diagonalization with overlap
     ethr =  6.14E-09,  avg # of iterations =  1.0

     total cpu time spent up to now is       27.7 secs

     total energy              =    -922.12314692 Ry
     Harris-Foulkes estimate   =    -922.12314788 Ry
     estimated scf accuracy    <       0.00000873 Ry

     iteration # 23     ecut=    75.00 Ry     beta= 0.70
     Davidson diagonalization with overlap
     ethr =  6.14E-09,  avg # of iterations =  1.0

     total cpu time spent up to now is       28.0 secs

     total energy              =    -922.12314604 Ry
     Harris-Foulkes estimate   =    -922.12314696 Ry
     estimated scf accuracy    <       0.00000642 Ry

     iteration # 24     ecut=    75.00 Ry     beta= 0.70
     Davidson diagonalization with overlap
     ethr =  5.73E-09,  avg # of iterations =  3.0

     total cpu time spent up to now is       28.5 secs

     total energy              =    -922.12314651 Ry
     Harris-Foulkes estimate   =    -922.12314640 Ry
     estimated scf accuracy    <       0.00000114 Ry

     iteration # 25     ecut=    75.00 Ry     beta= 0.70
     Davidson diagonalization with overlap
     ethr =  1.02E-09,  avg # of iterations =  3.0

     total cpu time spent up to now is       28.9 secs

     total energy              =    -922.12314626 Ry
     Harris-Foulkes estimate   =    -922.12314662 Ry
     estimated scf accuracy    <       0.00000128 Ry

     iteration # 26     ecut=    75.00 Ry     beta= 0.70
     Davidson diagonalization with overlap
     ethr =  1.02E-09,  avg # of iterations =  4.5

     total cpu time spent up to now is       29.6 secs

     total energy              =    -922.12314656 Ry
     Harris-Foulkes estimate   =    -922.12314659 Ry
     estimated scf accuracy    <       0.00000033 Ry

     iteration # 27     ecut=    75.00 Ry     beta= 0.70
     Davidson diagonalization with overlap
     ethr =  2.97E-10,  avg # of iterations =  1.2

     total cpu time spent up to now is       29.9 secs

     total energy              =    -922.12314653 Ry
     Harris-Foulkes estimate   =    -922.12314656 Ry
     estimated scf accuracy    <       0.00000025 Ry

     iteration # 28     ecut=    75.00 Ry     beta= 0.70
     Davidson diagonalization with overlap
     ethr =  2.25E-10,  avg # of iterations =  4.0

     total cpu time spent up to now is       30.4 secs

     total energy              =    -922.12314655 Ry
     Harris-Foulkes estimate   =    -922.12314656 Ry
     estimated scf accuracy    <       0.00000012 Ry

     iteration # 29     ecut=    75.00 Ry     beta= 0.70
     Davidson diagonalization with overlap
     ethr =  1.03E-10,  avg # of iterations =  3.5

     total cpu time spent up to now is       30.9 secs

     total energy              =    -922.12314653 Ry
     Harris-Foulkes estimate   =    -922.12314655 Ry
     estimated scf accuracy    <       0.00000006 Ry

     iteration # 30     ecut=    75.00 Ry     beta= 0.70
     Davidson diagonalization with overlap
     ethr =  5.33E-11,  avg # of iterations =  4.2

     total cpu time spent up to now is       31.5 secs

     total energy              =    -922.12314655 Ry
     Harris-Foulkes estimate   =    -922.12314655 Ry
     estimated scf accuracy    <       0.00000002 Ry

     iteration # 31     ecut=    75.00 Ry     beta= 0.70
     Davidson diagonalization with overlap
     ethr =  1.72E-11,  avg # of iterations =  1.2

     total cpu time spent up to now is       31.9 secs

     total energy              =    -922.12314655 Ry
     Harris-Foulkes estimate   =    -922.12314655 Ry
     estimated scf accuracy    <       0.00000001 Ry

     iteration # 32     ecut=    75.00 Ry     beta= 0.70
     Davidson diagonalization with overlap
     ethr =  1.00E-11,  avg # of iterations =  3.8

     total cpu time spent up to now is       32.4 secs

     total energy              =    -922.12314655 Ry
     Harris-Foulkes estimate   =    -922.12314655 Ry
     estimated scf accuracy    <          1.9E-09 Ry

     iteration # 33     ecut=    75.00 Ry     beta= 0.70
     Davidson diagonalization with overlap
     ethr =  1.72E-12,  avg # of iterations =  4.0

     total cpu time spent up to now is       32.9 secs

     total energy              =    -922.12314655 Ry
     Harris-Foulkes estimate   =    -922.12314655 Ry
     estimated scf accuracy    <          6.0E-10 Ry

     iteration # 34     ecut=    75.00 Ry     beta= 0.70
     Davidson diagonalization with overlap
     ethr =  5.34E-13,  avg # of iterations =  4.0

     total cpu time spent up to now is       33.4 secs

     total energy              =    -922.12314655 Ry
     Harris-Foulkes estimate   =    -922.12314655 Ry
     estimated scf accuracy    <          3.5E-10 Ry

     iteration # 35     ecut=    75.00 Ry     beta= 0.70
     Davidson diagonalization with overlap
     ethr =  3.13E-13,  avg # of iterations =  4.0

     total cpu time spent up to now is       33.8 secs

     total energy              =    -922.12314655 Ry
     Harris-Foulkes estimate   =    -922.12314655 Ry
     estimated scf accuracy    <          2.4E-10 Ry

     iteration # 36     ecut=    75.00 Ry     beta= 0.70
     Davidson diagonalization with overlap
     ethr =  2.18E-13,  avg # of iterations =  2.8

     total cpu time spent up to now is       34.2 secs

     total energy              =    -922.12314655 Ry
     Harris-Foulkes estimate   =    -922.12314655 Ry
     estimated scf accuracy    <          1.4E-10 Ry

     iteration # 37     ecut=    75.00 Ry     beta= 0.70
     Davidson diagonalization with overlap
     ethr =  1.27E-13,  avg # of iterations =  3.5

     total cpu time spent up to now is       34.6 secs

     End of self-consistent calculation

          k = 0.0000 0.0000 0.0000 ( 13489 PWs)   bands (ev):

   -59.9286 -59.9267 -59.9177 -59.9156 -33.9698 -33.9674 -33.9605 -33.9549
   -33.8734 -33.8194 -33.7925 -33.7626 -33.7600 -33.7411 -33.7278 -33.7253
   -13.5197 -13.3956 -12.4244 -12.2994 -12.2138 -12.1691 -11.7847 -11.7805
   -11.6210 -11.6007  -0.3942  -0.3809  -0.3377  -0.2279  -0.0454   0.3900
     1.0823   1.1304   1.3635   1.3676   1.6037   1.6419   1.8988   1.8988
     1.9382   2.0344   2.1072   2.1202   2.2169   2.3081   2.4044   2.5409
     2.5447   2.9398   3.0637   3.0910   3.1368   3.3574   3.3883   3.4552

          k = 0.0000 0.2640 0.0000 ( 13533 PWs)   bands (ev):

   -59.9286 -59.9266 -59.9177 -59.9157 -33.9715 -33.9690 -33.9638 -33.9581
   -33.8730 -33.8190 -33.7925 -33.7624 -33.7599 -33.7411 -33.7278 -33.7253
   -13.4466 -13.3330 -12.3607 -12.2721 -12.2105 -12.1504 -11.7930 -11.7701
   -11.5916 -11.5663  -0.4405  -0.4270  -0.3748  -0.2722  -0.2169   0.0577
     0.3193   0.4992   0.5397   0.6859   1.1886   1.3283   1.3859   1.8348
     1.8880   2.0943   2.2452   2.3475   2.5116   2.5756   2.7171   2.8248
     3.0729   3.0804   3.1229   3.2393   3.2572   3.5381   3.6126   3.7541

          k = 0.3336 0.0000 0.0000 ( 13532 PWs)   bands (ev):

   -59.9241 -59.9222 -59.9187 -59.9167 -33.9638 -33.9614 -33.9581 -33.9538
   -33.8697 -33.8421 -33.8290 -33.8193 -33.7724 -33.7669 -33.7510 -33.7401
   -12.9388 -12.7966 -12.3210 -12.1563 -12.1455 -12.1190 -11.7229 -11.7128
   -11.6800 -11.6377  -0.9031  -0.8253  -0.0733  -0.0718   0.0568   0.3866
     0.5134   0.8982   0.9008   1.2013   1.2377   1.2742   1.6437   1.7818
     1.7920   1.9596   2.0391   2.0527   2.1421   2.2014   2.3011   2.3459
     2.3777   2.7792   3.0656   3.1517   3.2329   3.4228   3.6010   3.6701

          k = 0.3336 0.2640 0.0000 ( 13519 PWs)   bands (ev):

   -59.9241 -59.9221 -59.9187 -59.9167 -33.9658 -33.9633 -33.9609 -33.9565
   -33.8693 -33.8418 -33.8286 -33.8190 -33.7724 -33.7669 -33.7510 -33.7402
   -12.8753 -12.7492 -12.2799 -12.1530 -12.1288 -12.1031 -11.7093 -11.6896
   -11.6107 -11.5927  -0.9053  -0.8257  -0.1473  -0.1360  -0.0678   0.1803
     0.2869   0.4219   0.4706   0.7003   0.7586   0.9794   1.3255   1.3476
     1.4620   1.5006   1.6271   1.7210   1.8860   2.3280   2.5514   2.7470
     3.0203   3.0265   3.4095   3.6020   3.6302   3.7879   3.8335   3.8373

     highest occupied level (ev):     3.8373

!    total energy              =    -922.12314655 Ry
     Harris-Foulkes estimate   =    -922.12314655 Ry
     estimated scf accuracy    <          9.2E-11 Ry

     The total energy is the sum of the following terms:

     one-electron contribution =    -590.32678180 Ry
     hartree contribution      =     334.65676295 Ry
     xc contribution           =    -174.12232067 Ry
     ewald contribution        =    -492.19982554 Ry
     Dispersion Correction     =      -0.13098148 Ry

     convergence has been achieved in  37 iterations

     Forces acting on atoms (cartesian axes, Ry/au):

     atom    1 type  1   force =     0.00000000    0.00169283    0.00043372
     atom    2 type  1   force =     0.00000000   -0.00169283   -0.00043372
     atom    3 type  1   force =     0.00000000   -0.00169283    0.00043372
     atom    4 type  1   force =     0.00000000    0.00169283   -0.00043372
     atom    5 type  2   force =     0.00000000    0.00043828   -0.00028253
     atom    6 type  2   force =     0.00000000   -0.00043828    0.00028253
     atom    7 type  2   force =     0.00000000   -0.00043828   -0.00028253
     atom    8 type  2   force =    -0.00000000    0.00043828    0.00028253
     atom    9 type  2   force =     0.00000000   -0.00305901    0.00007422
     atom   10 type  2   force =     0.00000000    0.00305901   -0.00007422
     atom   11 type  2   force =     0.00000000    0.00305901    0.00007422
     atom   12 type  2   force =    -0.00000000   -0.00086830   -0.00000000
     atom   13 type  2   force =     0.00000000    0.00086830   -0.00000000
     atom   14 type  2   force =     0.00000000   -0.00305901   -0.00007422

     Total force =     0.007229     Total SCF correction =     0.000021


     Computing stress (Cartesian axis) and pressure

          total   stress  (Ry/bohr**3)                   (kbar)     P=   -0.30
  -0.00000496   0.00000000   0.00000000         -0.73      0.00      0.00
   0.00000000   0.00000119   0.00000000          0.00      0.18      0.00
   0.00000000   0.00000000  -0.00000240          0.00      0.00     -0.35


     number of scf cycles    =   2
     number of bfgs steps    =   1

     enthalpy old            =    -922.1230795866 Ry
     enthalpy new            =    -922.1231465507 Ry

     CASE: enthalpy_new < enthalpy_old

     new trust radius        =       0.0040575548 bohr
     new conv_thr            =            1.0E-12 Ry

     new unit-cell volume =   1228.34477 a.u.^3 (   182.02191 Ang^3 )
     density =      3.31849 g/cm^3

CELL_PARAMETERS (alat=  6.68268247)
   0.998488059   0.000000000   0.000000000
   0.000000000   1.261977991   0.000000000
   0.000000000   0.000000000   3.266428436

ATOMIC_POSITIONS (crystal)
V        0.000000000   0.383103963   0.648097014
V        0.500000002   0.616896041   0.851902991
V        0.500000002   0.616896041   0.148097013
V        0.000000000   0.383103963   0.351902989
O        0.500000002   0.492435029   0.681276590
O        0.000000000   0.507564975   0.818723415
O        0.000000000   0.507564975   0.181276589
O        0.500000002   0.492435029   0.318723413
O        0.000000000   0.028464130   0.354171084
O        0.500000002   0.971535874   0.145828919
O        0.500000002   0.971535874   0.854171085
O        0.500000002   0.509035487  -0.000000000
O        0.000000000   0.490964517   0.500000002
O        0.000000000   0.028464130   0.645828921



     Writing output data file v2o5.save/
     NEW-OLD atomic charge density approx. for the potential

     Check: negative core charge=   -0.000003
     extrapolated charge  111.83352, renormalised to  112.00000

     total cpu time spent up to now is       36.0 secs

     Self-consistent Calculation

     iteration #  1     ecut=    75.00 Ry     beta= 0.70
     Davidson diagonalization with overlap
     ethr =  1.00E-06,  avg # of iterations =  7.2

     total cpu time spent up to now is       37.0 secs

     total energy              =    -922.11640474 Ry
     Harris-Foulkes estimate   =    -922.84380737 Ry
     estimated scf accuracy    <       0.00640615 Ry

     iteration #  2     ecut=    75.00 Ry     beta= 0.70
     Davidson diagonalization with overlap
     ethr =  5.72E-06,  avg # of iterations =  5.0

     total cpu time spent up to now is       37.9 secs

     total energy              =    -922.11225417 Ry
     Harris-Foulkes estimate   =    -922.14363423 Ry
     estimated scf accuracy    <       0.15382469 Ry

     iteration #  3     ecut=    75.00 Ry     beta= 0.70
     Davidson diagonalization with overlap
     ethr =  5.72E-06,  avg # of iterations =  5.0

     total cpu time spent up to now is       38.8 secs

     total energy              =    -922.12336506 Ry
     Harris-Foulkes estimate   =    -922.12393676 Ry
     estimated scf accuracy    <       0.00440143 Ry

     iteration #  4     ecut=    75.00 Ry     beta= 0.70
     Davidson diagonalization with overlap
     ethr =  3.93E-06,  avg # of iterations =  1.0

     total cpu time spent up to now is       39.1 secs

     total energy              =    -922.12298026 Ry
     Harris-Foulkes estimate   =    -922.12342785 Ry
     estimated scf accuracy    <       0.00317522 Ry

     iteration #  5     ecut=    75.00 Ry     beta= 0.70
     Davidson diagonalization with overlap
     ethr =  2.84E-06,  avg # of iterations =  2.5

     total cpu time spent up to now is       39.5 secs

     total energy              =    -922.12310364 Ry
     Harris-Foulkes estimate   =    -922.12308439 Ry
     estimated scf accuracy    <       0.00141624 Ry

     iteration #  6     ecut=    75.00 Ry     beta= 0.70
     Davidson diagonalization with overlap
     ethr =  1.26E-06,  avg # of iterations =  1.8

     total cpu time spent up to now is       39.9 secs

     total energy              =    -922.12314365 Ry
     Harris-Foulkes estimate   =    -922.12314586 Ry
     estimated scf accuracy    <       0.00134925 Ry

     iteration #  7     ecut=    75.00 Ry     beta= 0.70
     Davidson diagonalization with overlap
     ethr =  1.20E-06,  avg # of iterations =  1.0

     total cpu time spent up to now is       40.2 secs

     total energy              =    -922.12316616 Ry
     Harris-Foulkes estimate   =    -922.12316248 Ry
     estimated scf accuracy    <       0.00112743 Ry

     iteration #  8     ecut=    75.00 Ry     beta= 0.70
     Davidson diagonalization with overlap
     ethr =  1.01E-06,  avg # of iterations =  1.0

     total cpu time spent up to now is       40.6 secs

     total energy              =    -922.12317925 Ry
     Harris-Foulkes estimate   =    -922.12317914 Ry
     estimated scf accuracy    <       0.00104878 Ry

     iteration #  9     ecut=    75.00 Ry     beta= 0.70
     Davidson diagonalization with overlap
     ethr =  9.36E-07,  avg # of iterations =  1.0

     total cpu time spent up to now is       40.9 secs

     total energy              =    -922.12317947 Ry
     Harris-Foulkes estimate   =    -922.12318891 Ry
     estimated scf accuracy    <       0.00091943 Ry

     iteration # 10     ecut=    75.00 Ry     beta= 0.70
     Davidson diagonalization with overlap
     ethr =  8.21E-07,  avg # of iterations =  1.0

     total cpu time spent up to now is       41.2 secs

     total energy              =    -922.12290503 Ry
     Harris-Foulkes estimate   =    -922.12318770 Ry
     estimated scf accuracy    <       0.00082654 Ry

     iteration # 11     ecut=    75.00 Ry     beta= 0.70
     Davidson diagonalization with overlap
     ethr =  7.38E-07,  avg # of iterations =  5.0

     total cpu time spent up to now is       42.0 secs

     total energy              =    -922.12318211 Ry
     Harris-Foulkes estimate   =    -922.12323111 Ry
     estimated scf accuracy    <       0.00056599 Ry

     iteration # 12     ecut=    75.00 Ry     beta= 0.70
     Davidson diagonalization with overlap
     ethr =  5.05E-07,  avg # of iterations =  1.0

     total cpu time spent up to now is       42.3 secs

     total energy              =    -922.12318921 Ry
     Harris-Foulkes estimate   =    -922.12318636 Ry
     estimated scf accuracy    <       0.00043693 Ry

     iteration # 13     ecut=    75.00 Ry     beta= 0.70
     Davidson diagonalization with overlap
     ethr =  3.90E-07,  avg # of iterations =  1.0

     total cpu time spent up to now is       42.6 secs

     total energy              =    -922.12312330 Ry
     Harris-Foulkes estimate   =    -922.12319125 Ry
     estimated scf accuracy    <       0.00041564 Ry

     iteration # 14     ecut=    75.00 Ry     beta= 0.70
     Davidson diagonalization with overlap
     ethr =  3.71E-07,  avg # of iterations =  4.0

     total cpu time spent up to now is       43.2 secs

     total energy              =    -922.12315899 Ry
     Harris-Foulkes estimate   =    -922.12318620 Ry
     estimated scf accuracy    <       0.00011735 Ry

     iteration # 15     ecut=    75.00 Ry     beta= 0.70
     Davidson diagonalization with overlap
     ethr =  1.05E-07,  avg # of iterations =  4.2

     total cpu time spent up to now is       43.8 secs

     total energy              =    -922.12318336 Ry
     Harris-Foulkes estimate   =    -922.12318071 Ry
     estimated scf accuracy    <       0.00014399 Ry

     iteration # 16     ecut=    75.00 Ry     beta= 0.70
     Davidson diagonalization with overlap
     ethr =  1.05E-07,  avg # of iterations =  1.0

     total cpu time spent up to now is       44.1 secs

     total energy              =    -922.12319267 Ry
     Harris-Foulkes estimate   =    -922.12318412 Ry
     estimated scf accuracy    <       0.00015182 Ry

     iteration # 17     ecut=    75.00 Ry     beta= 0.70
     Davidson diagonalization with overlap
     ethr =  1.05E-07,  avg # of iterations =  1.0

     total cpu time spent up to now is       44.4 secs

     total energy              =    -922.12315454 Ry
     Harris-Foulkes estimate   =    -922.12319382 Ry
     estimated scf accuracy    <       0.00017815 Ry

     iteration # 18     ecut=    75.00 Ry     beta= 0.70
     Davidson diagonalization with overlap
     ethr =  1.05E-07,  avg # of iterations =  3.5

     total cpu time spent up to now is       44.8 secs

     total energy              =    -922.12314104 Ry
     Harris-Foulkes estimate   =    -922.12316131 Ry
     estimated scf accuracy    <       0.00007403 Ry

     iteration # 19     ecut=    75.00 Ry     beta= 0.70
     Davidson diagonalization with overlap
     ethr =  6.61E-08,  avg # of iterations =  4.0

     total cpu time spent up to now is       45.5 secs

     total energy              =    -922.12316217 Ry
     Harris-Foulkes estimate   =    -922.12316763 Ry
     estimated scf accuracy    <       0.00003948 Ry

     iteration # 20     ecut=    75.00 Ry     beta= 0.70
     Davidson diagonalization with overlap
     ethr =  3.53E-08,  avg # of iterations =  1.0

     total cpu time spent up to now is       45.8 secs

     total energy              =    -922.12315604 Ry
     Harris-Foulkes estimate   =    -922.12316282 Ry
     estimated scf accuracy    <       0.00002522 Ry

     iteration # 21     ecut=    75.00 Ry     beta= 0.70
     Davidson diagonalization with overlap
     ethr =  2.25E-08,  avg # of iterations =  4.0

     total cpu time spent up to now is       46.5 secs

     total energy              =    -922.12316188 Ry
     Harris-Foulkes estimate   =    -922.12316338 Ry
     estimated scf accuracy    <       0.00000750 Ry

     iteration # 22     ecut=    75.00 Ry     beta= 0.70
     Davidson diagonalization with overlap
     ethr =  6.69E-09,  avg # of iterations =  1.0

     total cpu time spent up to now is       46.8 secs

     total energy              =    -922.12316133 Ry
     Harris-Foulkes estimate   =    -922.12316211 Ry
     estimated scf accuracy    <       0.00000372 Ry

     iteration # 23     ecut=    75.00 Ry     beta= 0.70
     Davidson diagonalization with overlap
     ethr =  3.32E-09,  avg # of iterations =  4.0

     total cpu time spent up to now is       47.4 secs

     total energy              =    -922.12316265 Ry
     Harris-Foulkes estimate   =    -922.12316260 Ry
     estimated scf accuracy    <       0.00000148 Ry

     iteration # 24     ecut=    75.00 Ry     beta= 0.70
     Davidson diagonalization with overlap
     ethr =  1.32E-09,  avg # of iterations =  1.0

     total cpu time spent up to now is       47.8 secs

     total energy              =    -922.12316266 Ry
     Harris-Foulkes estimate   =    -922.12316266 Ry
     estimated scf accuracy    <       0.00000159 Ry

     iteration # 25     ecut=    75.00 Ry     beta= 0.70
     Davidson diagonalization with overlap
     ethr =  1.32E-09,  avg # of iterations =  1.0

     total cpu time spent up to now is       48.1 secs

     total energy              =    -922.12316248 Ry
     Harris-Foulkes estimate   =    -922.12316266 Ry
     estimated scf accuracy    <       0.00000162 Ry

     iteration # 26     ecut=    75.00 Ry     beta= 0.70
     Davidson diagonalization with overlap
     ethr =  1.32E-09,  avg # of iterations =  1.0

     total cpu time spent up to now is       48.4 secs

     total energy              =    -922.12316254 Ry
     Harris-Foulkes estimate   =    -922.12316249 Ry
     estimated scf accuracy    <       0.00000107 Ry

     iteration # 27     ecut=    75.00 Ry     beta= 0.70
     Davidson diagonalization with overlap
     ethr =  9.57E-10,  avg # of iterations =  1.0

     total cpu time spent up to now is       48.8 secs

     total energy              =    -922.12316252 Ry
     Harris-Foulkes estimate   =    -922.12316254 Ry
     estimated scf accuracy    <       0.00000116 Ry

     iteration # 28     ecut=    75.00 Ry     beta= 0.70
     Davidson diagonalization with overlap
     ethr =  9.57E-10,  avg # of iterations =  1.0

     total cpu time spent up to now is       49.1 secs

     total energy              =    -922.12316247 Ry
     Harris-Foulkes estimate   =    -922.12316252 Ry
     estimated scf accuracy    <       0.00000105 Ry

     iteration # 29     ecut=    75.00 Ry     beta= 0.70
     Davidson diagonalization with overlap
     ethr =  9.35E-10,  avg # of iterations =  1.0

     total cpu time spent up to now is       49.4 secs

     total energy              =    -922.12316233 Ry
     Harris-Foulkes estimate   =    -922.12316247 Ry
     estimated scf accuracy    <       0.00000084 Ry

     iteration # 30     ecut=    75.00 Ry     beta= 0.70
     Davidson diagonalization with overlap
     ethr =  7.47E-10,  avg # of iterations =  3.2

     total cpu time spent up to now is       49.8 secs

     total energy              =    -922.12316236 Ry
     Harris-Foulkes estimate   =    -922.12316237 Ry
     estimated scf accuracy    <       0.00000027 Ry

     iteration # 31     ecut=    75.00 Ry     beta= 0.70
     Davidson diagonalization with overlap
     ethr =  2.41E-10,  avg # of iterations =  4.0

     total cpu time spent up to now is       50.4 secs

     total energy              =    -922.12316243 Ry
     Harris-Foulkes estimate   =    -922.12316243 Ry
     estimated scf accuracy    <          9.6E-09 Ry

     iteration # 32     ecut=    75.00 Ry     beta= 0.70
     Davidson diagonalization with overlap
     ethr =  8.55E-12,  avg # of iterations =  5.0

     total cpu time spent up to now is       51.4 secs

     total energy              =    -922.12316245 Ry
     Harris-Foulkes estimate   =    -922.12316245 Ry
     estimated scf accuracy    <       0.00000014 Ry

     iteration # 33     ecut=    75.00 Ry     beta= 0.70
     Davidson diagonalization with overlap
     ethr =  8.55E-12,  avg # of iterations =  1.0

     total cpu time spent up to now is       51.7 secs

     total energy              =    -922.12316243 Ry
     Harris-Foulkes estimate   =    -922.12316245 Ry
     estimated scf accuracy    <       0.00000015 Ry

     iteration # 34     ecut=    75.00 Ry     beta= 0.70
     Davidson diagonalization with overlap
     ethr =  8.55E-12,  avg # of iterations =  4.0

     total cpu time spent up to now is       52.3 secs

     total energy              =    -922.12316243 Ry
     Harris-Foulkes estimate   =    -922.12316244 Ry
     estimated scf accuracy    <       0.00000006 Ry

     iteration # 35     ecut=    75.00 Ry     beta= 0.70
     Davidson diagonalization with overlap
     ethr =  8.55E-12,  avg # of iterations =  3.0

     total cpu time spent up to now is       52.8 secs

     total energy              =    -922.12316243 Ry
     Harris-Foulkes estimate   =    -922.12316243 Ry
     estimated scf accuracy    <       0.00000003 Ry

     iteration # 36     ecut=    75.00 Ry     beta= 0.70
     Davidson diagonalization with overlap
     ethr =  8.55E-12,  avg # of iterations =  1.0

     total cpu time spent up to now is       53.1 secs

     total energy              =    -922.12316243 Ry
     Harris-Foulkes estimate   =    -922.12316243 Ry
     estimated scf accuracy    <       0.00000002 Ry

     iteration # 37     ecut=    75.00 Ry     beta= 0.70
     Davidson diagonalization with overlap
     ethr =  8.55E-12,  avg # of iterations =  1.0

     total cpu time spent up to now is       53.5 secs

     total energy              =    -922.12316243 Ry
     Harris-Foulkes estimate   =    -922.12316243 Ry
     estimated scf accuracy    <       0.00000002 Ry

     iteration # 38     ecut=    75.00 Ry     beta= 0.70
     Davidson diagonalization with overlap
     ethr =  8.55E-12,  avg # of iterations =  4.0

     total cpu time spent up to now is       54.0 secs

     total energy              =    -922.12316243 Ry
     Harris-Foulkes estimate   =    -922.12316243 Ry
     estimated scf accuracy    <          1.7E-09 Ry

     iteration # 39     ecut=    75.00 Ry     beta= 0.70
     Davidson diagonalization with overlap
     ethr =  1.52E-12,  avg # of iterations =  3.5

     total cpu time spent up to now is       54.5 secs

     total energy              =    -922.12316243 Ry
     Harris-Foulkes estimate   =    -922.12316243 Ry
     estimated scf accuracy    <          1.6E-09 Ry

     iteration # 40     ecut=    75.00 Ry     beta= 0.70
     Davidson diagonalization with overlap
     ethr =  1.46E-12,  avg # of iterations =  4.0

     total cpu time spent up to now is       54.9 secs

     total energy              =    -922.12316243 Ry
     Harris-Foulkes estimate   =    -922.12316243 Ry
     estimated scf accuracy    <          1.5E-10 Ry

     iteration # 41     ecut=    75.00 Ry     beta= 0.70
     Davidson diagonalization with overlap
     ethr =  1.35E-13,  avg # of iterations =  5.0

     total cpu time spent up to now is       55.7 secs

     total energy              =    -922.12316243 Ry
     Harris-Foulkes estimate   =    -922.12316243 Ry
     estimated scf accuracy    <          1.6E-10 Ry

     iteration # 42     ecut=    75.00 Ry     beta= 0.70
     Davidson diagonalization with overlap
     ethr =  1.35E-13,  avg # of iterations =  4.0

     total cpu time spent up to now is       56.3 secs

     total energy              =    -922.12316243 Ry
     Harris-Foulkes estimate   =    -922.12316243 Ry
     estimated scf accuracy    <          3.4E-11 Ry

     iteration # 43     ecut=    75.00 Ry     beta= 0.70
     Davidson diagonalization with overlap
     ethr =  1.00E-13,  avg # of iterations =  1.0

     total cpu time spent up to now is       56.7 secs

     total energy              =    -922.12316243 Ry
     Harris-Foulkes estimate   =    -922.12316243 Ry
     estimated scf accuracy    <          2.1E-11 Ry

     iteration # 44     ecut=    75.00 Ry     beta= 0.70
     Davidson diagonalization with overlap
     ethr =  1.00E-13,  avg # of iterations =  1.5

     total cpu time spent up to now is       57.0 secs

     total energy              =    -922.12316243 Ry
     Harris-Foulkes estimate   =    -922.12316243 Ry
     estimated scf accuracy    <          2.0E-12 Ry

     iteration # 45     ecut=    75.00 Ry     beta= 0.70
     Davidson diagonalization with overlap
     ethr =  1.00E-13,  avg # of iterations =  1.0

     total cpu time spent up to now is       57.3 secs

     total energy              =    -922.12316243 Ry
     Harris-Foulkes estimate   =    -922.12316243 Ry
     estimated scf accuracy    <          1.1E-12 Ry

     iteration # 46     ecut=    75.00 Ry     beta= 0.70
     Davidson diagonalization with overlap
     ethr =  1.00E-13,  avg # of iterations =  1.5

     total cpu time spent up to now is       57.7 secs

     total energy              =    -922.12316243 Ry
     Harris-Foulkes estimate   =    -922.12316243 Ry
     estimated scf accuracy    <          2.0E-12 Ry

     iteration # 47     ecut=    75.00 Ry     beta= 0.70
     Davidson diagonalization with overlap
     ethr =  1.00E-13,  avg # of iterations =  1.0

     total cpu time spent up to now is       58.0 secs

     total energy              =    -922.12316243 Ry
     Harris-Foulkes estimate   =    -922.12316243 Ry
     estimated scf accuracy    <          2.3E-12 Ry

     iteration # 48     ecut=    75.00 Ry     beta= 0.70
     Davidson diagonalization with overlap
     ethr =  1.00E-13,  avg # of iterations =  1.0

     total cpu time spent up to now is       58.4 secs

     total energy              =    -922.12316243 Ry
     Harris-Foulkes estimate   =    -922.12316243 Ry
     estimated scf accuracy    <          3.4E-12 Ry

     iteration # 49     ecut=    75.00 Ry     beta= 0.70
     Davidson diagonalization with overlap
     ethr =  1.00E-13,  avg # of iterations =  1.0

     total cpu time spent up to now is       58.7 secs

     total energy              =    -922.12316243 Ry
     Harris-Foulkes estimate   =    -922.12316243 Ry
     estimated scf accuracy    <          3.7E-12 Ry

     iteration # 50     ecut=    75.00 Ry     beta= 0.70
     Davidson diagonalization with overlap
     ethr =  1.00E-13,  avg # of iterations =  1.0

     total cpu time spent up to now is       59.1 secs

     total energy              =    -922.12316243 Ry
     Harris-Foulkes estimate   =    -922.12316243 Ry
     estimated scf accuracy    <          5.7E-12 Ry

     iteration # 51     ecut=    75.00 Ry     beta= 0.70
     Davidson diagonalization with overlap
     ethr =  1.00E-13,  avg # of iterations =  1.0

     total cpu time spent up to now is       59.4 secs

     total energy              =    -922.12316243 Ry
     Harris-Foulkes estimate   =    -922.12316243 Ry
     estimated scf accuracy    <          5.9E-12 Ry

     iteration # 52     ecut=    75.00 Ry     beta= 0.70
     Davidson diagonalization with overlap
     ethr =  1.00E-13,  avg # of iterations =  1.0

     total cpu time spent up to now is       59.7 secs

     total energy              =    -922.12316243 Ry
     Harris-Foulkes estimate   =    -922.12316243 Ry
     estimated scf accuracy    <          6.9E-12 Ry

     iteration # 53     ecut=    75.00 Ry     beta= 0.70
     Davidson diagonalization with overlap
     ethr =  1.00E-13,  avg # of iterations =  1.0

     total cpu time spent up to now is       60.1 secs

     total energy              =    -922.12316243 Ry
     Harris-Foulkes estimate   =    -922.12316243 Ry
     estimated scf accuracy    <          7.6E-12 Ry

     iteration # 54     ecut=    75.00 Ry     beta= 0.70
     Davidson diagonalization with overlap
     ethr =  1.00E-13,  avg # of iterations =  1.0

     total cpu time spent up to now is       60.4 secs

     total energy              =    -922.12316243 Ry
     Harris-Foulkes estimate   =    -922.12316243 Ry
     estimated scf accuracy    <          7.0E-12 Ry

     iteration # 55     ecut=    75.00 Ry     beta= 0.70
     Davidson diagonalization with overlap
     ethr =  1.00E-13,  avg # of iterations =  1.0

     total cpu time spent up to now is       60.8 secs

     total energy              =    -922.12316243 Ry
     Harris-Foulkes estimate   =    -922.12316243 Ry
     estimated scf accuracy    <          5.8E-12 Ry

     iteration # 56     ecut=    75.00 Ry     beta= 0.70
     Davidson diagonalization with overlap
     ethr =  1.00E-13,  avg # of iterations =  1.0

     total cpu time spent up to now is       61.1 secs

     total energy              =    -922.12316243 Ry
     Harris-Foulkes estimate   =    -922.12316243 Ry
     estimated scf accuracy    <          9.1E-12 Ry

     iteration # 57     ecut=    75.00 Ry     beta= 0.70
     Davidson diagonalization with overlap
     ethr =  1.00E-13,  avg # of iterations =  1.0

     total cpu time spent up to now is       61.5 secs

     total energy              =    -922.12316243 Ry
     Harris-Foulkes estimate   =    -922.12316243 Ry
     estimated scf accuracy    <          9.8E-12 Ry

     iteration # 58     ecut=    75.00 Ry     beta= 0.70
     Davidson diagonalization with overlap
     ethr =  1.00E-13,  avg # of iterations =  1.0

     total cpu time spent up to now is       61.8 secs

     total energy              =    -922.12316243 Ry
     Harris-Foulkes estimate   =    -922.12316243 Ry
     estimated scf accuracy    <          8.7E-12 Ry

     iteration # 59     ecut=    75.00 Ry     beta= 0.70
     Davidson diagonalization with overlap
     ethr =  1.00E-13,  avg # of iterations =  1.0

     total cpu time spent up to now is       62.1 secs

     End of self-consistent calculation

          k = 0.0000 0.0000 0.0000 ( 13489 PWs)   bands (ev):

   -59.9136 -59.9117 -59.9026 -59.9005 -33.9487 -33.9463 -33.9395 -33.9336
   -33.8606 -33.8064 -33.7790 -33.7499 -33.7474 -33.7275 -33.7148 -33.7123
   -13.5161 -13.3920 -12.4150 -12.2950 -12.2081 -12.1582 -11.7621 -11.7586
   -11.5973 -11.5778  -0.3895  -0.3761  -0.3345  -0.2255  -0.0361   0.4019
     1.0893   1.1541   1.3683   1.3894   1.6219   1.6602   1.9218   1.9261
     1.9684   2.0619   2.1261   2.1504   2.2266   2.3411   2.4280   2.5560
     2.5666   2.9522   3.0884   3.1161   3.1429   3.3749   3.3979   3.4721

          k = 0.0000 0.2641 0.0000 ( 13533 PWs)   bands (ev):

   -59.9136 -59.9116 -59.9025 -59.9006 -33.9505 -33.9480 -33.9427 -33.9369
   -33.8602 -33.8060 -33.7789 -33.7497 -33.7472 -33.7275 -33.7148 -33.7123
   -13.4435 -13.3299 -12.3521 -12.2683 -12.2046 -12.1398 -11.7703 -11.7467
   -11.5672 -11.5414  -0.4353  -0.4217  -0.3699  -0.2690  -0.2071   0.0719
     0.3317   0.5111   0.5579   0.7067   1.2099   1.3481   1.4058   1.8589
     1.9137   2.1090   2.2548   2.3595   2.5260   2.6079   2.7444   2.8542
     3.0952   3.1031   3.1347   3.2495   3.2669   3.5556   3.6276   3.7756

          k = 0.3338 0.0000 0.0000 ( 13532 PWs)   bands (ev):

   -59.9091 -59.9071 -59.9036 -59.9016 -33.9427 -33.9403 -33.9369 -33.9325
   -33.8571 -33.8296 -33.8163 -33.8070 -33.7593 -33.7540 -33.7379 -33.7267
   -12.9326 -12.7906 -12.3106 -12.1505 -12.1384 -12.1081 -11.6997 -11.6904
   -11.6553 -11.6147  -0.9014  -0.8232  -0.0681  -0.0662   0.0664   0.3933
     0.5198   0.9091   0.9093   1.2170   1.2566   1.2980   1.6639   1.8039
     1.8155   1.9821   2.0654   2.0776   2.1676   2.2191   2.3274   2.3628
     2.4048   2.7946   3.0823   3.1740   3.2475   3.4420   3.6119   3.6803

          k = 0.3338 0.2641 0.0000 ( 13519 PWs)   bands (ev):

   -59.9090 -59.9071 -59.9035 -59.9015 -33.9447 -33.9422 -33.9397 -33.9352
   -33.8568 -33.8294 -33.8159 -33.8067 -33.7592 -33.7540 -33.7379 -33.7267
   -12.8697 -12.7438 -12.2708 -12.1473 -12.1211 -12.0924 -11.6857 -11.6652
   -11.5863 -11.5675  -0.9037  -0.8237  -0.1418  -0.1272  -0.0574   0.1943
     0.2946   0.4294   0.4833   0.7185   0.7771   0.9902   1.3480   1.3595
     1.4796   1.5193   1.6485   1.7399   1.9106   2.3550   2.5695   2.7741
     3.0388   3.0426   3.4299   3.6192   3.6474   3.8074   3.8471   3.8523

     highest occupied level (ev):     3.8523

!    total energy              =    -922.12316243 Ry
     Harris-Foulkes estimate   =    -922.12316243 Ry
     estimated scf accuracy    <          6.7E-13 Ry

     The total energy is the sum of the following terms:

     one-electron contribution =    -589.57704058 Ry
     hartree contribution      =     334.34586525 Ry
     xc contribution           =    -174.12327906 Ry
     ewald contribution        =    -492.63754347 Ry
     Dispersion Correction     =      -0.13116458 Ry

     convergence has been achieved in  59 iterations

     Forces acting on atoms (cartesian axes, Ry/au):

     atom    1 type  1   force =    -0.00000000   -0.00276644   -0.00002690
     atom    2 type  1   force =     0.00000000    0.00276644    0.00002690
     atom    3 type  1   force =     0.00000000    0.00276644   -0.00002690
     atom    4 type  1   force =    -0.00000000   -0.00276644    0.00002690
     atom    5 type  2   force =     0.00000000    0.00070832   -0.00031931
     atom    6 type  2   force =     0.00000000   -0.00070832    0.00031931
     atom    7 type  2   force =     0.00000000   -0.00070832   -0.00031931
     atom    8 type  2   force =     0.00000000    0.00070832    0.00031931
     atom    9 type  2   force =     0.00000000    0.00058732    0.00002751
     atom   10 type  2   force =     0.00000000   -0.00058732   -0.00002751
     atom   11 type  2   force =     0.00000000   -0.00058732    0.00002751
     atom   12 type  2   force =    -0.00000000   -0.00116127    0.00000000
     atom   13 type  2   force =     0.00000000    0.00116127    0.00000000
     atom   14 type  2   force =    -0.00000000    0.00058732   -0.00002751

     Total force =     0.006092     Total SCF correction =     0.000002


     Computing stress (Cartesian axis) and pressure

          total   stress  (Ry/bohr**3)                   (kbar)     P=    0.00
   0.00001567   0.00000000   0.00000000          2.31      0.00      0.00
   0.00000000  -0.00003032   0.00000000          0.00     -4.46      0.00
   0.00000000   0.00000000   0.00001467          0.00      0.00      2.16


     number of scf cycles    =   3
     number of bfgs steps    =   2

     enthalpy old            =    -922.1231465507 Ry
     enthalpy new            =    -922.1231624297 Ry

     CASE: enthalpy_new < enthalpy_old

     new trust radius        =       0.0040242361 bohr
     new conv_thr            =            1.0E-12 Ry

     new unit-cell volume =   1227.96141 a.u.^3 (   181.96511 Ang^3 )
     density =      3.31952 g/cm^3

CELL_PARAMETERS (alat=  6.68268247)
   0.998609357   0.000000000   0.000000000
   0.000000000   1.261253480   0.000000000
   0.000000000   0.000000000   3.266887917

ATOMIC_POSITIONS (crystal)
V        0.000000000   0.382988736   0.648106586
V        0.500000002   0.617011268   0.851893419
V        0.500000002   0.617011268   0.148106585
V        0.000000000   0.382988736   0.351893417
O        0.500000002   0.492519696   0.681259811
O        0.000000000   0.507480308   0.818740194
O        0.000000000   0.507480308   0.181259810
O        0.500000002   0.492519696   0.318740192
O        0.000000000   0.028317904   0.354173700
O        0.500000002   0.971682100   0.145826303
O        0.500000002   0.971682100   0.854173701
O        0.500000002   0.508887799  -0.000000000
O        0.000000000   0.491112205   0.500000002
O       -0.000000000   0.028317904   0.645826305



     Writing output data file v2o5.save/
     NEW-OLD atomic charge density approx. for the potential

     Check: negative core charge=   -0.000003
     extrapolated charge  111.96504, renormalised to  112.00000

     total cpu time spent up to now is       63.5 secs

     Self-consistent Calculation

     iteration #  1     ecut=    75.00 Ry     beta= 0.70
     Davidson diagonalization with overlap
     ethr =  1.00E-06,  avg # of iterations =  3.0

     total cpu time spent up to now is       64.2 secs

     total energy              =    -922.12305325 Ry
     Harris-Foulkes estimate   =    -922.27429794 Ry
     estimated scf accuracy    <       0.00011632 Ry

     iteration #  2     ecut=    75.00 Ry     beta= 0.70
     Davidson diagonalization with overlap
     ethr =  1.04E-07,  avg # of iterations =  6.0

     total cpu time spent up to now is       65.1 secs

     total energy              =    -922.12301127 Ry
     Harris-Foulkes estimate   =    -922.12351509 Ry
     estimated scf accuracy    <       0.00240832 Ry

     iteration #  3     ecut=    75.00 Ry     beta= 0.70
     Davidson diagonalization with overlap
     ethr =  1.04E-07,  avg # of iterations =  5.0

     total cpu time spent up to now is       66.1 secs

     total energy              =    -922.12319829 Ry
     Harris-Foulkes estimate   =    -922.12321155 Ry
     estimated scf accuracy    <       0.00005594 Ry

     iteration #  4     ecut=    75.00 Ry     beta= 0.70
     Davidson diagonalization with overlap
     ethr =  4.99E-08,  avg # of iterations =  1.0

     total cpu time spent up to now is       66.4 secs

     total energy              =    -922.12319156 Ry
     Harris-Foulkes estimate   =    -922.12320040 Ry
     estimated scf accuracy    <       0.00003008 Ry

     iteration #  5     ecut=    75.00 Ry     beta= 0.70
     Davidson diagonalization with overlap
     ethr =  2.69E-08,  avg # of iterations =  3.0

     total cpu time spent up to now is       66.8 secs

     total energy              =    -922.12319293 Ry
     Harris-Foulkes estimate   =    -922.12319377 Ry
     estimated scf accuracy    <       0.00001000 Ry

     iteration #  6     ecut=    75.00 Ry     beta= 0.70
     Davidson diagonalization with overlap
     ethr =  8.93E-09,  avg # of iterations =  4.2

     total cpu time spent up to now is       67.4 secs

     total energy              =    -922.12319454 Ry
     Harris-Foulkes estimate   =    -922.12319455 Ry
     estimated scf accuracy    <       0.00000023 Ry

     iteration #  7     ecut=    75.00 Ry     beta= 0.70
     Davidson diagonalization with overlap
     ethr =  2.09E-10,  avg # of iterations =  5.0

     total cpu time spent up to now is       68.3 secs

     total energy              =    -922.12319519 Ry
     Harris-Foulkes estimate   =    -922.12319493 Ry
     estimated scf accuracy    <       0.00000222 Ry

     iteration #  8     ecut=    75.00 Ry     beta= 0.70
     Davidson diagonalization with overlap
     ethr =  2.09E-10,  avg # of iterations =  4.5

     total cpu time spent up to now is       69.0 secs

     total energy              =    -922.12319446 Ry
     Harris-Foulkes estimate   =    -922.12319529 Ry
     estimated scf accuracy    <       0.00000535 Ry

     iteration #  9     ecut=    75.00 Ry     beta= 0.70
     Davidson diagonalization with overlap
     ethr =  2.09E-10,  avg # of iterations =  5.0

     total cpu time spent up to now is       69.9 secs

     total energy              =    -922.12319472 Ry
     Harris-Foulkes estimate   =    -922.12319472 Ry
     estimated scf accuracy    <       0.00000056 Ry

     iteration # 10     ecut=    75.00 Ry     beta= 0.70
     Davidson diagonalization with overlap
     ethr =  2.09E-10,  avg # of iterations =  1.0

     total cpu time spent up to now is       70.2 secs

     total energy              =    -922.12319464 Ry
     Harris-Foulkes estimate   =    -922.12319472 Ry
     estimated scf accuracy    <       0.00000054 Ry

     iteration # 11     ecut=    75.00 Ry     beta= 0.70
     Davidson diagonalization with overlap
     ethr =  2.09E-10,  avg # of iterations =  4.0

     total cpu time spent up to now is       70.7 secs

     total energy              =    -922.12319464 Ry
     Harris-Foulkes estimate   =    -922.12319466 Ry
     estimated scf accuracy    <       0.00000013 Ry

     iteration # 12     ecut=    75.00 Ry     beta= 0.70
     Davidson diagonalization with overlap
     ethr =  1.19E-10,  avg # of iterations =  4.0

     total cpu time spent up to now is       71.2 secs

     total energy              =    -922.12319465 Ry
     Harris-Foulkes estimate   =    -922.12319465 Ry
     estimated scf accuracy    <       0.00000005 Ry

     iteration # 13     ecut=    75.00 Ry     beta= 0.70
     Davidson diagonalization with overlap
     ethr =  4.08E-11,  avg # of iterations =  4.0

     total cpu time spent up to now is       71.6 secs

     total energy              =    -922.12319465 Ry
     Harris-Foulkes estimate   =    -922.12319465 Ry
     estimated scf accuracy    <       0.00000001 Ry

     iteration # 14     ecut=    75.00 Ry     beta= 0.70
     Davidson diagonalization with overlap
     ethr =  1.03E-11,  avg # of iterations =  4.0

     total cpu time spent up to now is       72.2 secs

     total energy              =    -922.12319465 Ry
     Harris-Foulkes estimate   =    -922.12319465 Ry
     estimated scf accuracy    <          4.0E-09 Ry

     iteration # 15     ecut=    75.00 Ry     beta= 0.70
     Davidson diagonalization with overlap
     ethr =  3.59E-12,  avg # of iterations =  4.0

     total cpu time spent up to now is       72.6 secs

     total energy              =    -922.12319465 Ry
     Harris-Foulkes estimate   =    -922.12319465 Ry
     estimated scf accuracy    <          8.3E-10 Ry

     iteration # 16     ecut=    75.00 Ry     beta= 0.70
     Davidson diagonalization with overlap
     ethr =  7.37E-13,  avg # of iterations =  4.0

     total cpu time spent up to now is       73.2 secs

     total energy              =    -922.12319465 Ry
     Harris-Foulkes estimate   =    -922.12319465 Ry
     estimated scf accuracy    <          1.9E-10 Ry

     iteration # 17     ecut=    75.00 Ry     beta= 0.70
     Davidson diagonalization with overlap
     ethr =  1.67E-13,  avg # of iterations =  4.2

     total cpu time spent up to now is       73.7 secs

     total energy              =    -922.12319465 Ry
     Harris-Foulkes estimate   =    -922.12319465 Ry
     estimated scf accuracy    <          3.6E-10 Ry

     iteration # 18     ecut=    75.00 Ry     beta= 0.70
     Davidson diagonalization with overlap
     ethr =  1.67E-13,  avg # of iterations =  3.2

     total cpu time spent up to now is       74.1 secs

     total energy              =    -922.12319465 Ry
     Harris-Foulkes estimate   =    -922.12319465 Ry
     estimated scf accuracy    <          2.3E-10 Ry

     iteration # 19     ecut=    75.00 Ry     beta= 0.70
     Davidson diagonalization with overlap
     ethr =  1.67E-13,  avg # of iterations =  3.0

     total cpu time spent up to now is       74.5 secs

     total energy              =    -922.12319465 Ry
     Harris-Foulkes estimate   =    -922.12319465 Ry
     estimated scf accuracy    <          6.5E-11 Ry

     iteration # 20     ecut=    75.00 Ry     beta= 0.70
     Davidson diagonalization with overlap
     ethr =  1.00E-13,  avg # of iterations =  4.0

     total cpu time spent up to now is       75.0 secs

     total energy              =    -922.12319465 Ry
     Harris-Foulkes estimate   =    -922.12319465 Ry
     estimated scf accuracy    <          3.2E-11 Ry

     iteration # 21     ecut=    75.00 Ry     beta= 0.70
     Davidson diagonalization with overlap
     ethr =  1.00E-13,  avg # of iterations =  4.0

     total cpu time spent up to now is       75.4 secs

     total energy              =    -922.12319465 Ry
     Harris-Foulkes estimate   =    -922.12319465 Ry
     estimated scf accuracy    <          5.8E-12 Ry

     iteration # 22     ecut=    75.00 Ry     beta= 0.70
     Davidson diagonalization with overlap
     ethr =  1.00E-13,  avg # of iterations =  1.0

     total cpu time spent up to now is       75.8 secs

     total energy              =    -922.12319465 Ry
     Harris-Foulkes estimate   =    -922.12319465 Ry
     estimated scf accuracy    <          6.4E-12 Ry

     iteration # 23     ecut=    75.00 Ry     beta= 0.70
     Davidson diagonalization with overlap
     ethr =  1.00E-13,  avg # of iterations =  1.0

     total cpu time spent up to now is       76.1 secs

     total energy              =    -922.12319465 Ry
     Harris-Foulkes estimate   =    -922.12319465 Ry
     estimated scf accuracy    <          2.6E-12 Ry

     iteration # 24     ecut=    75.00 Ry     beta= 0.70
     Davidson diagonalization with overlap
     ethr =  1.00E-13,  avg # of iterations =  1.0

     total cpu time spent up to now is       76.5 secs

     total energy              =    -922.12319465 Ry
     Harris-Foulkes estimate   =    -922.12319465 Ry
     estimated scf accuracy    <          2.0E-12 Ry

     iteration # 25     ecut=    75.00 Ry     beta= 0.70
     Davidson diagonalization with overlap
     ethr =  1.00E-13,  avg # of iterations =  1.0

     total cpu time spent up to now is       76.8 secs

     End of self-consistent calculation

          k = 0.0000 0.0000 0.0000 ( 13489 PWs)   bands (ev):

   -59.9092 -59.9073 -59.8982 -59.8961 -33.9467 -33.9442 -33.9372 -33.9315
   -33.8549 -33.8009 -33.7736 -33.7448 -33.7423 -33.7222 -33.7098 -33.7073
   -13.5089 -13.3850 -12.4086 -12.2887 -12.1999 -12.1501 -11.7614 -11.7571
   -11.5970 -11.5767  -0.3819  -0.3686  -0.3246  -0.2170  -0.0272   0.4080
     1.0963   1.1563   1.3746   1.3941   1.6238   1.6622   1.9232   1.9277
     1.9697   2.0626   2.1315   2.1490   2.2366   2.3385   2.4295   2.5595
     2.5677   2.9593   3.0889   3.1165   3.1487   3.3763   3.4033   3.4759

          k = 0.0000 0.2643 0.0000 ( 13533 PWs)   bands (ev):

   -59.9092 -59.9072 -59.8981 -59.8962 -33.9484 -33.9459 -33.9405 -33.9348
   -33.8545 -33.8005 -33.7735 -33.7447 -33.7421 -33.7222 -33.7098 -33.7073
   -13.4356 -13.3223 -12.3448 -12.2615 -12.1963 -12.1312 -11.7694 -11.7461
   -11.5666 -11.5411  -0.4283  -0.4148  -0.3613  -0.2610  -0.2001   0.0728
     0.3362   0.5147   0.5590   0.7087   1.2097   1.3478   1.4057   1.8597
     1.9136   2.1159   2.2651   2.3641   2.5304   2.6065   2.7456   2.8539
     3.0976   3.1052   3.1415   3.2556   3.2726   3.5605   3.6331   3.7793

          k = 0.3338 0.0000 0.0000 ( 13532 PWs)   bands (ev):

   -59.9047 -59.9027 -59.8991 -59.8972 -33.9406 -33.9382 -33.9348 -33.9304
   -33.8515 -33.8242 -33.8110 -33.8017 -33.7540 -33.7489 -33.7327 -33.7214
   -12.9258 -12.7842 -12.3026 -12.1441 -12.1322 -12.1003 -11.6993 -11.6891
   -11.6557 -11.6135  -0.8929  -0.8152  -0.0604  -0.0567   0.0755   0.3989
     0.5256   0.9143   0.9168   1.2215   1.2606   1.3010   1.6689   1.8063
     1.8168   1.9852   2.0672   2.0773   2.1697   2.2202   2.3299   2.3686
     2.4046   2.7969   3.0854   3.1743   3.2499   3.4429   3.6172   3.6881

[...]

     iteration #  3     ecut=    75.00 Ry     beta= 0.70
     Davidson diagonalization with overlap
     ethr =  6.82E-03,  avg # of iterations =  5.8

     total cpu time spent up to now is      699.5 secs

     total energy              =    -921.91827533 Ry
     Harris-Foulkes estimate   =    -922.65918549 Ry
     estimated scf accuracy    <       2.51921228 Ry

     iteration #  4     ecut=    75.00 Ry     beta= 0.70
     Davidson diagonalization with overlap
     ethr =  2.25E-03,  avg # of iterations =  3.8

     total cpu time spent up to now is      700.0 secs

     total energy              =    -922.06087697 Ry
     Harris-Foulkes estimate   =    -922.19472197 Ry
     estimated scf accuracy    <       0.86276330 Ry

     iteration #  5     ecut=    75.00 Ry     beta= 0.70
     Davidson diagonalization with overlap
     ethr =  7.70E-04,  avg # of iterations =  4.0

     total cpu time spent up to now is      700.5 secs

     total energy              =    -921.99956283 Ry
     Harris-Foulkes estimate   =    -922.12428193 Ry
     estimated scf accuracy    <       0.43040037 Ry

     iteration #  6     ecut=    75.00 Ry     beta= 0.70
     Davidson diagonalization with overlap
     ethr =  3.84E-04,  avg # of iterations =  4.0

     total cpu time spent up to now is      701.1 secs

     total energy              =    -922.12614705 Ry
     Harris-Foulkes estimate   =    -922.14328618 Ry
     estimated scf accuracy    <       0.16837631 Ry

     iteration #  7     ecut=    75.00 Ry     beta= 0.70
     Davidson diagonalization with overlap
     ethr =  1.50E-04,  avg # of iterations =  2.2

     total cpu time spent up to now is      701.5 secs

     total energy              =    -922.10238167 Ry
     Harris-Foulkes estimate   =    -922.12875669 Ry
     estimated scf accuracy    <       0.12411855 Ry

     iteration #  8     ecut=    75.00 Ry     beta= 0.70
     Davidson diagonalization with overlap
     ethr =  1.11E-04,  avg # of iterations =  3.8

     total cpu time spent up to now is      702.0 secs

     total energy              =    -922.12183742 Ry
     Harris-Foulkes estimate   =    -922.12251016 Ry
     estimated scf accuracy    <       0.00354064 Ry

     iteration #  9     ecut=    75.00 Ry     beta= 0.70
     Davidson diagonalization with overlap
     ethr =  3.16E-06,  avg # of iterations =  5.5

     total cpu time spent up to now is      702.7 secs

     total energy              =    -922.12270331 Ry
     Harris-Foulkes estimate   =    -922.12315872 Ry
     estimated scf accuracy    <       0.00324976 Ry

     iteration # 10     ecut=    75.00 Ry     beta= 0.70
     Davidson diagonalization with overlap
     ethr =  2.90E-06,  avg # of iterations =  1.5

     total cpu time spent up to now is      703.0 secs

     total energy              =    -922.12226611 Ry
     Harris-Foulkes estimate   =    -922.12279483 Ry
     estimated scf accuracy    <       0.00186172 Ry

     iteration # 11     ecut=    75.00 Ry     beta= 0.70
     Davidson diagonalization with overlap
     ethr =  1.66E-06,  avg # of iterations =  4.2

     total cpu time spent up to now is      703.7 secs

     total energy              =    -922.12280615 Ry
     Harris-Foulkes estimate   =    -922.12294223 Ry
     estimated scf accuracy    <       0.00077535 Ry

     iteration # 12     ecut=    75.00 Ry     beta= 0.70
     Davidson diagonalization with overlap
     ethr =  6.92E-07,  avg # of iterations =  1.2

     total cpu time spent up to now is      704.0 secs

     total energy              =    -922.12272805 Ry
     Harris-Foulkes estimate   =    -922.12282463 Ry
     estimated scf accuracy    <       0.00042378 Ry

     iteration # 13     ecut=    75.00 Ry     beta= 0.70
     Davidson diagonalization with overlap
     ethr =  3.78E-07,  avg # of iterations =  3.8

     total cpu time spent up to now is      704.6 secs

     total energy              =    -922.12283390 Ry
     Harris-Foulkes estimate   =    -922.12284254 Ry
     estimated scf accuracy    <       0.00006523 Ry

     iteration # 14     ecut=    75.00 Ry     beta= 0.70
     Davidson diagonalization with overlap
     ethr =  5.82E-08,  avg # of iterations =  2.8

     total cpu time spent up to now is      705.0 secs

     total energy              =    -922.12282742 Ry
     Harris-Foulkes estimate   =    -922.12283602 Ry
     estimated scf accuracy    <       0.00004592 Ry

     iteration # 15     ecut=    75.00 Ry     beta= 0.70
     Davidson diagonalization with overlap
     ethr =  4.10E-08,  avg # of iterations =  3.8

     total cpu time spent up to now is      705.5 secs

     total energy              =    -922.12283282 Ry
     Harris-Foulkes estimate   =    -922.12283292 Ry
     estimated scf accuracy    <       0.00000224 Ry

     iteration # 16     ecut=    75.00 Ry     beta= 0.70
     Davidson diagonalization with overlap
     ethr =  2.00E-09,  avg # of iterations =  5.5

     total cpu time spent up to now is      706.2 secs

     total energy              =    -922.12283420 Ry
     Harris-Foulkes estimate   =    -922.12283432 Ry
     estimated scf accuracy    <       0.00000042 Ry

     iteration # 17     ecut=    75.00 Ry     beta= 0.70
     Davidson diagonalization with overlap
     ethr =  3.77E-10,  avg # of iterations =  4.0

     total cpu time spent up to now is      706.7 secs

     total energy              =    -922.12283426 Ry
     Harris-Foulkes estimate   =    -922.12283426 Ry
     estimated scf accuracy    <       0.00000005 Ry

     iteration # 18     ecut=    75.00 Ry     beta= 0.70
     Davidson diagonalization with overlap
     ethr =  4.45E-11,  avg # of iterations =  5.0

     total cpu time spent up to now is      707.6 secs

     total energy              =    -922.12283425 Ry
     Harris-Foulkes estimate   =    -922.12283432 Ry
     estimated scf accuracy    <       0.00000049 Ry

     iteration # 19     ecut=    75.00 Ry     beta= 0.70
     Davidson diagonalization with overlap
     ethr =  4.45E-11,  avg # of iterations =  4.0

     total cpu time spent up to now is      708.3 secs

     total energy              =    -922.12283426 Ry
     Harris-Foulkes estimate   =    -922.12283427 Ry
     estimated scf accuracy    <       0.00000010 Ry

     iteration # 20     ecut=    75.00 Ry     beta= 0.70
     Davidson diagonalization with overlap
     ethr =  4.45E-11,  avg # of iterations =  2.0

     total cpu time spent up to now is      708.6 secs

     total energy              =    -922.12283425 Ry
     Harris-Foulkes estimate   =    -922.12283426 Ry
     estimated scf accuracy    <       0.00000005 Ry

     iteration # 21     ecut=    75.00 Ry     beta= 0.70
     Davidson diagonalization with overlap
     ethr =  4.45E-11,  avg # of iterations =  1.0

     total cpu time spent up to now is      709.0 secs

     total energy              =    -922.12283425 Ry
     Harris-Foulkes estimate   =    -922.12283426 Ry
     estimated scf accuracy    <       0.00000004 Ry

     iteration # 22     ecut=    75.00 Ry     beta= 0.70
     Davidson diagonalization with overlap
     ethr =  3.15E-11,  avg # of iterations =  1.0

     total cpu time spent up to now is      709.3 secs

     total energy              =    -922.12283425 Ry
     Harris-Foulkes estimate   =    -922.12283426 Ry
     estimated scf accuracy    <       0.00000003 Ry

     iteration # 23     ecut=    75.00 Ry     beta= 0.70
     Davidson diagonalization with overlap
     ethr =  2.56E-11,  avg # of iterations =  3.5

     total cpu time spent up to now is      709.8 secs

     total energy              =    -922.12283426 Ry
     Harris-Foulkes estimate   =    -922.12283426 Ry
     estimated scf accuracy    <          2.1E-09 Ry

     iteration # 24     ecut=    75.00 Ry     beta= 0.70
     Davidson diagonalization with overlap
     ethr =  1.88E-12,  avg # of iterations =  5.0

     total cpu time spent up to now is      710.6 secs

     total energy              =    -922.12283426 Ry
     Harris-Foulkes estimate   =    -922.12283426 Ry
     estimated scf accuracy    <          8.4E-09 Ry

     iteration # 25     ecut=    75.00 Ry     beta= 0.70
     Davidson diagonalization with overlap
     ethr =  1.88E-12,  avg # of iterations =  1.0

     total cpu time spent up to now is      711.0 secs

     total energy              =    -922.12283426 Ry
     Harris-Foulkes estimate   =    -922.12283426 Ry
     estimated scf accuracy    <          7.3E-09 Ry

     iteration # 26     ecut=    75.00 Ry     beta= 0.70
     Davidson diagonalization with overlap
     ethr =  1.88E-12,  avg # of iterations =  1.0

     total cpu time spent up to now is      711.3 secs

     total energy              =    -922.12283426 Ry
     Harris-Foulkes estimate   =    -922.12283426 Ry
     estimated scf accuracy    <          5.5E-09 Ry

     iteration # 27     ecut=    75.00 Ry     beta= 0.70
     Davidson diagonalization with overlap
     ethr =  1.88E-12,  avg # of iterations =  1.0

     total cpu time spent up to now is      711.7 secs

     total energy              =    -922.12283426 Ry
     Harris-Foulkes estimate   =    -922.12283426 Ry
     estimated scf accuracy    <          4.6E-09 Ry

     iteration # 28     ecut=    75.00 Ry     beta= 0.70
     Davidson diagonalization with overlap
     ethr =  1.88E-12,  avg # of iterations =  4.0

     total cpu time spent up to now is      712.3 secs

     total energy              =    -922.12283426 Ry
     Harris-Foulkes estimate   =    -922.12283426 Ry
     estimated scf accuracy    <          2.7E-10 Ry

     iteration # 29     ecut=    75.00 Ry     beta= 0.70
     Davidson diagonalization with overlap
     ethr =  2.45E-13,  avg # of iterations =  1.2

     total cpu time spent up to now is      712.7 secs

     total energy              =    -922.12283426 Ry
     Harris-Foulkes estimate   =    -922.12283426 Ry
     estimated scf accuracy    <          2.7E-10 Ry

     iteration # 30     ecut=    75.00 Ry     beta= 0.70
     Davidson diagonalization with overlap
     ethr =  2.37E-13,  avg # of iterations =  1.0

     total cpu time spent up to now is      713.0 secs

     total energy              =    -922.12283426 Ry
     Harris-Foulkes estimate   =    -922.12283426 Ry
     estimated scf accuracy    <          2.2E-10 Ry

     iteration # 31     ecut=    75.00 Ry     beta= 0.70
     Davidson diagonalization with overlap
     ethr =  1.94E-13,  avg # of iterations =  1.5

     total cpu time spent up to now is      713.4 secs

     total energy              =    -922.12283426 Ry
     Harris-Foulkes estimate   =    -922.12283426 Ry
     estimated scf accuracy    <          1.1E-10 Ry

     iteration # 32     ecut=    75.00 Ry     beta= 0.70
     Davidson diagonalization with overlap
     ethr =  1.00E-13,  avg # of iterations =  4.2

     total cpu time spent up to now is      714.1 secs

     total energy              =    -922.12283426 Ry
     Harris-Foulkes estimate   =    -922.12283426 Ry
     estimated scf accuracy    <          1.7E-10 Ry

     iteration # 33     ecut=    75.00 Ry     beta= 0.70
     Davidson diagonalization with overlap
     ethr =  1.00E-13,  avg # of iterations =  1.0

     total cpu time spent up to now is      714.4 secs

     total energy              =    -922.12283426 Ry
     Harris-Foulkes estimate   =    -922.12283426 Ry
     estimated scf accuracy    <          1.5E-10 Ry

     iteration # 34     ecut=    75.00 Ry     beta= 0.70
     Davidson diagonalization with overlap
     ethr =  1.00E-13,  avg # of iterations =  3.8

     total cpu time spent up to now is      714.9 secs

     total energy              =    -922.12283426 Ry
     Harris-Foulkes estimate   =    -922.12283426 Ry
     estimated scf accuracy    <          2.4E-11 Ry

     iteration # 35     ecut=    75.00 Ry     beta= 0.70
     Davidson diagonalization with overlap
     ethr =  1.00E-13,  avg # of iterations =  1.0

     total cpu time spent up to now is      715.2 secs

     total energy              =    -922.12283426 Ry
     Harris-Foulkes estimate   =    -922.12283426 Ry
     estimated scf accuracy    <          1.4E-11 Ry

     iteration # 36     ecut=    75.00 Ry     beta= 0.70
     Davidson diagonalization with overlap
     ethr =  1.00E-13,  avg # of iterations =  1.0

     total cpu time spent up to now is      715.6 secs

     total energy              =    -922.12283426 Ry
     Harris-Foulkes estimate   =    -922.12283426 Ry
     estimated scf accuracy    <          7.9E-12 Ry

     iteration # 37     ecut=    75.00 Ry     beta= 0.70
     Davidson diagonalization with overlap
     ethr =  1.00E-13,  avg # of iterations =  1.0

     total cpu time spent up to now is      715.9 secs

     total energy              =    -922.12283426 Ry
     Harris-Foulkes estimate   =    -922.12283426 Ry
     estimated scf accuracy    <          2.3E-12 Ry

     iteration # 38     ecut=    75.00 Ry     beta= 0.70
     Davidson diagonalization with overlap
     ethr =  1.00E-13,  avg # of iterations =  1.0

     total cpu time spent up to now is      716.2 secs

     End of self-consistent calculation

          k = 0.0000 0.0000 0.0000 ( 13405 PWs)   bands (ev):

   -59.8441 -59.8422 -59.8332 -59.8312 -33.8805 -33.8781 -33.8713 -33.8657
   -33.7887 -33.7351 -33.7078 -33.6781 -33.6756 -33.6567 -33.6434 -33.6409
   -13.4338 -13.3089 -12.3403 -12.2139 -12.1250 -12.0797 -11.7018 -11.6951
   -11.5384 -11.5146  -0.2975  -0.2840  -0.2531  -0.1345   0.0434   0.4910
     1.1866   1.2274   1.4483   1.4774   1.7053   1.7418   1.9896   2.0157
     2.0612   2.1325   2.2034   2.2181   2.3045   2.3982   2.4873   2.6133
     2.6477   3.0460   3.1473   3.1747   3.2193   3.4375   3.4820   3.5423

          k = 0.0000 0.2662 0.0000 ( 13401 PWs)   bands (ev):

   -59.8441 -59.8421 -59.8331 -59.8312 -33.8825 -33.8800 -33.8750 -33.8693
   -33.7882 -33.7346 -33.7078 -33.6779 -33.6754 -33.6567 -33.6434 -33.6409
   -13.3548 -13.2411 -12.2704 -12.1834 -12.1214 -12.0599 -11.7077 -11.6849
   -11.5027 -11.4783  -0.3477  -0.3340  -0.2934  -0.1816  -0.1325   0.1255
     0.4002   0.5760   0.6062   0.7629   1.2521   1.4109   1.4680   1.9163
     1.9712   2.1844   2.3347   2.4349   2.6045   2.6740   2.8171   2.9210
     3.1642   3.1739   3.2298   3.3364   3.3506   3.6424   3.7158   3.8659

          k = 0.3337 0.0000 0.0000 ( 13398 PWs)   bands (ev):

   -59.8396 -59.8377 -59.8341 -59.8322 -33.8745 -33.8721 -33.8689 -33.8645
   -33.7851 -33.7575 -33.7446 -33.7349 -33.6879 -33.6825 -33.6667 -33.6558
   -12.8523 -12.7085 -12.2344 -12.0660 -12.0563 -12.0291 -11.6408 -11.6280
   -11.6009 -11.5533  -0.8129  -0.7362   0.0120   0.0191   0.1460   0.4750
     0.6030   0.9969   1.0028   1.3049   1.3354   1.3734   1.7459   1.8804
     1.8842   2.0650   2.1388   2.1636   2.2600   2.2733   2.4224   2.4485
     2.4669   2.8740   3.1476   3.2308   3.3106   3.4982   3.6815   3.7615

          k = 0.3337 0.2662 0.0000 ( 13402 PWs)   bands (ev):

   -59.8395 -59.8376 -59.8341 -59.8322 -33.8768 -33.8744 -33.8720 -33.8676
   -33.7847 -33.7573 -33.7442 -33.7347 -33.6879 -33.6825 -33.6667 -33.6558
   -12.7835 -12.6569 -12.1896 -12.0624 -12.0380 -12.0122 -11.6226 -11.6027
   -11.5226 -11.5057  -0.8157  -0.7368  -0.0616  -0.0543   0.0157   0.2521
     0.3659   0.5035   0.5411   0.7728   0.8259   1.0715   1.3883   1.4318
     1.5509   1.5782   1.7051   1.8014   1.9771   2.4248   2.6496   2.8432
     3.1168   3.1250   3.5204   3.7053   3.7366   3.8949   3.9331   3.9354

     highest occupied level (ev):     3.9354

!    total energy              =    -922.12283426 Ry
     Harris-Foulkes estimate   =    -922.12283426 Ry
     estimated scf accuracy    <          2.5E-13 Ry

     The total energy is the sum of the following terms:

     one-electron contribution =    -584.38855567 Ry
     hartree contribution      =     332.05263866 Ry
     xc contribution           =    -174.12278485 Ry
     ewald contribution        =    -495.53211781 Ry
     Dispersion Correction     =      -0.13201459 Ry

     convergence has been achieved in  38 iterations

     Forces acting on atoms (cartesian axes, Ry/au):

     atom    1 type  1   force =    -0.00000000    0.00005463   -0.00000368
     atom    2 type  1   force =     0.00000000   -0.00005463    0.00000368
     atom    3 type  1   force =     0.00000000   -0.00005463   -0.00000368
     atom    4 type  1   force =     0.00000000    0.00005463    0.00000368
     atom    5 type  2   force =     0.00000000   -0.00001049    0.00000661
     atom    6 type  2   force =     0.00000000    0.00001049   -0.00000661
     atom    7 type  2   force =     0.00000000    0.00001049    0.00000661
     atom    8 type  2   force =     0.00000000   -0.00001049   -0.00000661
     atom    9 type  2   force =     0.00000000   -0.00006132    0.00001331
     atom   10 type  2   force =     0.00000000    0.00006132   -0.00001331
     atom   11 type  2   force =    -0.00000000    0.00006132    0.00001331
     atom   12 type  2   force =     0.00000000   -0.00000611    0.00000000
     atom   13 type  2   force =     0.00000000    0.00000611   -0.00000000
     atom   14 type  2   force =    -0.00000000   -0.00006132   -0.00001331

     Total force =     0.000169     Total SCF correction =     0.000002


     Computing stress (Cartesian axis) and pressure

          total   stress  (Ry/bohr**3)                   (kbar)     P=   -0.74
  -0.00000339   0.00000000   0.00000000         -0.50      0.00      0.00
   0.00000000  -0.00000876   0.00000000          0.00     -1.29      0.00
   0.00000000   0.00000000  -0.00000293          0.00      0.00     -0.43


     Writing output data file v2o5.save/

     init_run     :      1.07s CPU      1.09s WALL (       2 calls)
     electrons    :    644.83s CPU    659.95s WALL (      29 calls)
     update_pot   :     15.19s CPU     15.21s WALL (      27 calls)
     forces       :     15.18s CPU     15.35s WALL (      29 calls)
     stress       :     24.42s CPU     24.50s WALL (      29 calls)

     Called by init_run:
     wfcinit      :      0.46s CPU      0.47s WALL (       2 calls)
     potinit      :      0.19s CPU      0.19s WALL (       2 calls)
     hinit0       :      0.38s CPU      0.39s WALL (       2 calls)

     Called by electrons:
     c_bands      :    606.53s CPU    620.19s WALL (     886 calls)
     sum_band     :     30.40s CPU     31.44s WALL (     886 calls)
     v_of_rho     :      3.82s CPU      3.86s WALL (     897 calls)
     mix_rho      :      2.20s CPU      2.22s WALL (     886 calls)

     Called by c_bands:
     init_us_2    :      5.74s CPU      6.59s WALL (    7328 calls)
     cegterg      :    586.73s CPU    598.50s WALL (    3544 calls)

     Called by sum_band:

     Called by *egterg:
     h_psi        :    305.22s CPU    311.66s WALL (   13895 calls)
     g_psi        :      0.97s CPU      0.97s WALL (   10343 calls)
     cdiaghg      :    105.63s CPU    108.14s WALL (   13707 calls)

     Called by h_psi:
     h_psi:pot    :    303.37s CPU    309.68s WALL (   13895 calls)
     h_psi:calbec :     98.42s CPU    100.87s WALL (   13895 calls)
     vloc_psi     :    134.02s CPU    137.69s WALL (   13895 calls)
     add_vuspsi   :     70.86s CPU     71.07s WALL (   13895 calls)

     General routines
     calbec       :    104.87s CPU    107.50s WALL (   14475 calls)
     fft          :      3.11s CPU      3.14s WALL (    9711 calls)
     ffts         :      0.23s CPU      0.23s WALL (     886 calls)
     fftw         :    146.03s CPU    150.03s WALL ( 1215608 calls)

     Parallel routines
     fft_scatt_xy :     10.56s CPU     10.83s WALL ( 1226205 calls)
     fft_scatt_yz :     86.68s CPU     89.15s WALL ( 1226205 calls)

     PWSCF        :  11m41.48s CPU  11m57.09s WALL


   This run was terminated on:  20:37:18  18May2024            

=------------------------------------------------------------------------------=
   JOB DONE.
=------------------------------------------------------------------------------=
