
     Program PWSCF v.6.4.1 starts on 19May2024 at  0:48:38 

     This program is part of the open-source Quantum ESPRESSO suite
     for quantum simulation of materials; please cite
         "P. Giannozzi et al., J. Phys.:Condens. Matter 21 395502 (2009);
         "P. Giannozzi et al., J. Phys.:Condens. Matter 29 465901 (2017);
          URL http://www.quantum-espresso.org", 
     in publications or presentations arising from this work. More details at
     http://www.quantum-espresso.org/quote

     Parallel version (MPI), running on    32 processors

     MPI processes distributed on     1 nodes
     R & G space division:  proc/nbgrp/npool/nimage =      32
     Reading input from v2o5.vc.in
Warning: card O       -0.000000000   0.048914545   0.643203052 ignored

     Current dimensions of program PWSCF are:
     Max number of different atomic species (ntypx) = 10
     Max number of k-points (npk) =  40000
     Max angular momentum in pseudopotentials (lmaxx) =  3

     IMPORTANT: XC functional enforced from input :
     Exchange-correlation      = VDW-DF ( 1  4  4  0 1 0)
     Any further DFT definition will be discarded
     Please, verify this is what you really want


     Subspace diagonalization in iterative solution of the eigenvalue problem:
     one sub-group per band group will be used
     ELPA distributed-memory algorithm (size of sub-group:  4*  4 procs)


     Parallelization info
     --------------------
     sticks:   dense  smooth     PW     G-vecs:    dense   smooth      PW
     Min          32      32      9                 2268     2268     327
     Max          33      33     10                 2277     2277     335
     Sum        1047    1047    291                72727    72727   10605



     bravais-lattice index     =            8
     lattice parameter (alat)  =       6.7676  a.u.
     unit-cell volume          =    1320.1235 (a.u.)^3
     number of atoms/cell      =           14
     number of atomic types    =            2
     number of electrons       =       112.00
     number of Kohn-Sham states=           56
     kinetic-energy cutoff     =      55.0000  Ry
     charge density cutoff     =     220.0000  Ry
     convergence threshold     =      1.0E-10
     mixing beta               =       0.7000
     number of iterations used =            8  plain     mixing
     Exchange-correlation      = VDW-DF ( 1  4  4  0 1 0)
     nstep                     =          500


     celldm(1)=   6.767583  celldm(2)=   1.308375  celldm(3)=   3.255230
     celldm(4)=   0.000000  celldm(5)=   0.000000  celldm(6)=   0.000000

     crystal axes: (cart. coord. in units of alat)
               a(1) = (   1.000000   0.000000   0.000000 )  
               a(2) = (   0.000000   1.308375   0.000000 )  
               a(3) = (   0.000000   0.000000   3.255230 )  

     reciprocal axes: (cart. coord. in units 2 pi/alat)
               b(1) = (  1.000000  0.000000  0.000000 )  
               b(2) = (  0.000000  0.764307  0.000000 )  
               b(3) = (  0.000000  0.000000  0.307198 )  


     PseudoPot. # 1 for V  read from file:
     /home/mpicuntureo/pseudos/v.nc.upf
     MD5 check sum: 40fb93c06b4f9d8c28c5ccd071294a04
     Pseudo is Norm-conserving + core correction, Zval = 13.0
     Generated using ONCVPSP code by D. R. Hamann
     Using radial grid of 1536 points,  6 beta functions with: 
                l(1) =   0
                l(2) =   0
                l(3) =   1
                l(4) =   1
                l(5) =   2
                l(6) =   2

     PseudoPot. # 2 for O  read from file:
     /home/mpicuntureo/pseudos/o.nc.upf
     MD5 check sum: 3e3f909f7470e8921608ab6b1f57bbae
     Pseudo is Norm-conserving + core correction, Zval =  6.0
     Generated using ONCVPSP code by D. R. Hamann
     Using radial grid of  936 points,  5 beta functions with: 
                l(1) =   0
                l(2) =   0
                l(3) =   1
                l(4) =   1
                l(5) =   2

     vdW kernel table read from file vdW_kernel_table
     MD5 check sum: 8c4337f4b28e1601c069d7ef7b6561bc

     atomic species   valence    mass     pseudopotential
        V             13.00    50.94150     V ( 1.00)
        O              6.00    15.99940     O ( 1.00)

      8 Sym. Ops., with inversion, found ( 4 have fractional translation)



   Cartesian axes

     site n.     atom                  positions (alat units)
         1           V   tau(   1) = (   0.0000000   0.5083212   2.1085108  )
         2           V   tau(   2) = (   0.5000000   0.8000533   2.7743339  )
         3           V   tau(   3) = (   0.5000000   0.8000533   0.4808959  )
         4           V   tau(   4) = (   0.0000000   0.5083212   1.1467190  )
         5           O   tau(   5) = (   0.5000000   0.6458297   2.2175314  )
         6           O   tau(   6) = (   0.0000000   0.6625449   2.6653133  )
         7           O   tau(   7) = (   0.0000000   0.6625449   0.5899165  )
         8           O   tau(   8) = (   0.5000000   0.6458297   1.0376984  )
         9           O   tau(   9) = (   0.0000000   0.0639985   1.1614561  )
        10           O   tau(  10) = (   0.5000000   1.2443760   0.4661588  )
        11           O   tau(  11) = (   0.5000000   1.2443760   2.7890710  )
        12           O   tau(  12) = (   0.5000000   0.6549630   0.0000000  )
        13           O   tau(  13) = (   0.0000000   0.6534115   1.6276149  )
        14           O   tau(  14) = (   0.0000000   0.0639985   2.0937737  )

     number of k points=     4
                       cart. coord. in units 2pi/alat
        k(    1) = (   0.0000000   0.0000000   0.0000000), wk =   0.2222222
        k(    2) = (   0.0000000   0.2547691   0.0000000), wk =   0.4444444
        k(    3) = (   0.3333333   0.0000000   0.0000000), wk =   0.4444444
        k(    4) = (   0.3333333   0.2547691   0.0000000), wk =   0.8888889

     Dense  grid:    72727 G-vectors     FFT dimensions: (  32,  45, 108)

     Estimated max dynamical RAM per process >      10.89 MB

     Estimated total dynamical RAM >     348.38 MB

     Check: negative core charge=   -0.000082

     Initial potential from superposition of free atoms

     starting charge  111.99579, renormalised to  112.00000


     %%%%%%%%%%%%%%%%%%%%%%%%%%%%%%%%%%%%%%%%%%%%%%%%%%%%%%%%%%%%%%%%%%%%%%%%
     %                                                                      %
     % You are using vdW-DF, which was implemented by the Thonhauser group. %
     % Please cite the following two papers that made this development      %
     % possible and the two reviews that describe the various versions:     %
     %                                                                      %
     %   T. Thonhauser et al., PRL 115, 136402 (2015).                      %
     %   T. Thonhauser et al., PRB 76, 125112 (2007).                       %
     %   K. Berland et al., Rep. Prog. Phys. 78, 066501 (2015).             %
     %   D.C. Langreth et al., J. Phys.: Condens. Matter 21, 084203 (2009). %
     %                                                                      %
     %                                                                      %
     % If you are calculating the stress with vdW-DF, please also cite:     %
     %                                                                      %
     %   R. Sabatini et al., J. Phys.: Condens. Matter 24, 424209 (2012).   %
     %                                                                      %
     %%%%%%%%%%%%%%%%%%%%%%%%%%%%%%%%%%%%%%%%%%%%%%%%%%%%%%%%%%%%%%%%%%%%%%%%


     Starting wfcs are   80 randomized atomic wfcs

     total cpu time spent up to now is        0.9 secs

     Self-consistent Calculation

     iteration #  1     ecut=    55.00 Ry     beta= 0.70
     Davidson diagonalization with overlap
     ethr =  1.00E-02,  avg # of iterations =  2.0

     total cpu time spent up to now is        1.4 secs

     total energy              =    -920.37696556 Ry
     Harris-Foulkes estimate   =    -927.33036359 Ry
     estimated scf accuracy    <       8.71039902 Ry

     iteration #  2     ecut=    55.00 Ry     beta= 0.70
     Davidson diagonalization with overlap
     ethr =  7.78E-03,  avg # of iterations =  6.2

     total cpu time spent up to now is        2.1 secs

     total energy              =    -910.70906134 Ry
     Harris-Foulkes estimate   =    -944.44332114 Ry
     estimated scf accuracy    <     149.60372875 Ry

     iteration #  3     ecut=    55.00 Ry     beta= 0.70
     Davidson diagonalization with overlap
     ethr =  7.78E-03,  avg # of iterations =  5.5

     total cpu time spent up to now is        2.9 secs

     total energy              =    -925.38054670 Ry
     Harris-Foulkes estimate   =    -926.31327469 Ry
     estimated scf accuracy    <       3.02300838 Ry

     iteration #  4     ecut=    55.00 Ry     beta= 0.70
     Davidson diagonalization with overlap
     ethr =  2.70E-03,  avg # of iterations =  4.0

     total cpu time spent up to now is        3.3 secs

     total energy              =    -925.61116481 Ry
     Harris-Foulkes estimate   =    -925.75665132 Ry
     estimated scf accuracy    <       0.90008070 Ry

     iteration #  5     ecut=    55.00 Ry     beta= 0.70
     Davidson diagonalization with overlap
     ethr =  8.04E-04,  avg # of iterations =  3.8

     total cpu time spent up to now is        3.6 secs

     total energy              =    -925.53064337 Ry
     Harris-Foulkes estimate   =    -925.67476961 Ry
     estimated scf accuracy    <       0.49482154 Ry

     iteration #  6     ecut=    55.00 Ry     beta= 0.70
     Davidson diagonalization with overlap
     ethr =  4.42E-04,  avg # of iterations =  4.2

     total cpu time spent up to now is        4.1 secs

     total energy              =    -925.68304831 Ry
     Harris-Foulkes estimate   =    -925.69663054 Ry
     estimated scf accuracy    <       0.24454904 Ry

     iteration #  7     ecut=    55.00 Ry     beta= 0.70
     Davidson diagonalization with overlap
     ethr =  2.18E-04,  avg # of iterations =  2.0

     total cpu time spent up to now is        4.4 secs

     total energy              =    -925.64509917 Ry
     Harris-Foulkes estimate   =    -925.68521576 Ry
     estimated scf accuracy    <       0.21036784 Ry

     iteration #  8     ecut=    55.00 Ry     beta= 0.70
     Davidson diagonalization with overlap
     ethr =  1.88E-04,  avg # of iterations =  3.5

     total cpu time spent up to now is        4.8 secs

     total energy              =    -925.65870339 Ry
     Harris-Foulkes estimate   =    -925.66280570 Ry
     estimated scf accuracy    <       0.02320887 Ry

     iteration #  9     ecut=    55.00 Ry     beta= 0.70
     Davidson diagonalization with overlap
     ethr =  2.07E-05,  avg # of iterations =  4.8

     total cpu time spent up to now is        5.3 secs

     total energy              =    -925.66802474 Ry
     Harris-Foulkes estimate   =    -925.66833740 Ry
     estimated scf accuracy    <       0.00205187 Ry

     iteration # 10     ecut=    55.00 Ry     beta= 0.70
     Davidson diagonalization with overlap
     ethr =  1.83E-06,  avg # of iterations =  3.0

     total cpu time spent up to now is        5.6 secs

     total energy              =    -925.66788862 Ry
     Harris-Foulkes estimate   =    -925.66813925 Ry
     estimated scf accuracy    <       0.00132543 Ry

     iteration # 11     ecut=    55.00 Ry     beta= 0.70
     Davidson diagonalization with overlap
     ethr =  1.18E-06,  avg # of iterations =  4.0

     total cpu time spent up to now is        6.0 secs

     total energy              =    -925.66792241 Ry
     Harris-Foulkes estimate   =    -925.66799356 Ry
     estimated scf accuracy    <       0.00027911 Ry

     iteration # 12     ecut=    55.00 Ry     beta= 0.70
     Davidson diagonalization with overlap
     ethr =  2.49E-07,  avg # of iterations =  4.5

     total cpu time spent up to now is        6.5 secs

     total energy              =    -925.66802732 Ry
     Harris-Foulkes estimate   =    -925.66808021 Ry
     estimated scf accuracy    <       0.00024046 Ry

     iteration # 13     ecut=    55.00 Ry     beta= 0.70
     Davidson diagonalization with overlap
     ethr =  2.15E-07,  avg # of iterations =  3.0

     total cpu time spent up to now is        6.8 secs

     total energy              =    -925.66803226 Ry
     Harris-Foulkes estimate   =    -925.66803913 Ry
     estimated scf accuracy    <       0.00006764 Ry

     iteration # 14     ecut=    55.00 Ry     beta= 0.70
     Davidson diagonalization with overlap
     ethr =  6.04E-08,  avg # of iterations =  4.2

     total cpu time spent up to now is        7.3 secs

     total energy              =    -925.66804958 Ry
     Harris-Foulkes estimate   =    -925.66805118 Ry
     estimated scf accuracy    <       0.00000838 Ry

     iteration # 15     ecut=    55.00 Ry     beta= 0.70
     Davidson diagonalization with overlap
     ethr =  7.48E-09,  avg # of iterations =  3.8

     total cpu time spent up to now is        7.7 secs

     total energy              =    -925.66804994 Ry
     Harris-Foulkes estimate   =    -925.66805026 Ry
     estimated scf accuracy    <       0.00000450 Ry

     iteration # 16     ecut=    55.00 Ry     beta= 0.70
     Davidson diagonalization with overlap
     ethr =  4.02E-09,  avg # of iterations =  2.8

     total cpu time spent up to now is        8.0 secs

     total energy              =    -925.66804972 Ry
     Harris-Foulkes estimate   =    -925.66805008 Ry
     estimated scf accuracy    <       0.00000283 Ry

     iteration # 17     ecut=    55.00 Ry     beta= 0.70
     Davidson diagonalization with overlap
     ethr =  2.53E-09,  avg # of iterations =  4.0

     total cpu time spent up to now is        8.4 secs

     total energy              =    -925.66804991 Ry
     Harris-Foulkes estimate   =    -925.66804996 Ry
     estimated scf accuracy    <       0.00000077 Ry

     iteration # 18     ecut=    55.00 Ry     beta= 0.70
     Davidson diagonalization with overlap
     ethr =  6.84E-10,  avg # of iterations =  4.2

     total cpu time spent up to now is        8.8 secs

     total energy              =    -925.66805006 Ry
     Harris-Foulkes estimate   =    -925.66805007 Ry
     estimated scf accuracy    <       0.00000015 Ry

     iteration # 19     ecut=    55.00 Ry     beta= 0.70
     Davidson diagonalization with overlap
     ethr =  1.30E-10,  avg # of iterations =  3.5

     total cpu time spent up to now is        9.1 secs

     total energy              =    -925.66805007 Ry
     Harris-Foulkes estimate   =    -925.66805007 Ry
     estimated scf accuracy    <       0.00000011 Ry

     iteration # 20     ecut=    55.00 Ry     beta= 0.70
     Davidson diagonalization with overlap
     ethr =  9.71E-11,  avg # of iterations =  4.0

     total cpu time spent up to now is        9.6 secs

     total energy              =    -925.66805008 Ry
     Harris-Foulkes estimate   =    -925.66805010 Ry
     estimated scf accuracy    <       0.00000034 Ry

     iteration # 21     ecut=    55.00 Ry     beta= 0.70
     Davidson diagonalization with overlap
     ethr =  9.71E-11,  avg # of iterations =  1.0

     total cpu time spent up to now is        9.9 secs

     total energy              =    -925.66805005 Ry
     Harris-Foulkes estimate   =    -925.66805008 Ry
     estimated scf accuracy    <       0.00000029 Ry

     iteration # 22     ecut=    55.00 Ry     beta= 0.70
     Davidson diagonalization with overlap
     ethr =  9.71E-11,  avg # of iterations =  3.5

     total cpu time spent up to now is       10.3 secs

     total energy              =    -925.66805004 Ry
     Harris-Foulkes estimate   =    -925.66805007 Ry
     estimated scf accuracy    <       0.00000009 Ry

     iteration # 23     ecut=    55.00 Ry     beta= 0.70
     Davidson diagonalization with overlap
     ethr =  7.98E-11,  avg # of iterations =  4.0

     total cpu time spent up to now is       10.7 secs

     total energy              =    -925.66805006 Ry
     Harris-Foulkes estimate   =    -925.66805006 Ry
     estimated scf accuracy    <          4.8E-09 Ry

     iteration # 24     ecut=    55.00 Ry     beta= 0.70
     Davidson diagonalization with overlap
     ethr =  4.26E-12,  avg # of iterations =  5.0

     total cpu time spent up to now is       11.3 secs

     total energy              =    -925.66805005 Ry
     Harris-Foulkes estimate   =    -925.66805006 Ry
     estimated scf accuracy    <       0.00000002 Ry

     iteration # 25     ecut=    55.00 Ry     beta= 0.70
     Davidson diagonalization with overlap
     ethr =  4.26E-12,  avg # of iterations =  5.0

     total cpu time spent up to now is       11.9 secs

     total energy              =    -925.66805006 Ry
     Harris-Foulkes estimate   =    -925.66805006 Ry
     estimated scf accuracy    <          3.0E-09 Ry

     iteration # 26     ecut=    55.00 Ry     beta= 0.70
     Davidson diagonalization with overlap
     ethr =  2.72E-12,  avg # of iterations =  1.0

     total cpu time spent up to now is       12.2 secs

     total energy              =    -925.66805006 Ry
     Harris-Foulkes estimate   =    -925.66805006 Ry
     estimated scf accuracy    <          2.5E-09 Ry

     iteration # 27     ecut=    55.00 Ry     beta= 0.70
     Davidson diagonalization with overlap
     ethr =  2.23E-12,  avg # of iterations =  3.8

     total cpu time spent up to now is       12.6 secs

     End of self-consistent calculation

          k = 0.0000 0.0000 0.0000 (  9047 PWs)   bands (ev):

   -61.1799 -61.1795 -61.1738 -61.1695 -35.1942 -35.1920 -35.1844 -35.1802
   -35.1159 -35.0701 -35.0522 -35.0244 -35.0223 -35.0081 -34.9957 -34.9936
   -14.2993 -14.1884 -13.3110 -13.1753 -13.1059 -13.0955 -12.7423 -12.7363
   -12.6061 -12.6013  -1.1051  -1.0929  -1.0085  -0.9142  -0.8082  -0.4086
     0.2488   0.3445   0.5263   0.6003   0.7503   0.7862   0.9052   0.9440
     1.0072   1.0390   1.3132   1.3399   1.4433   1.5054   1.6043   1.6217
     1.8041   2.0351   2.1810   2.2069   2.3159   2.4987   2.5061   2.5893

          k = 0.0000 0.2548 0.0000 (  9075 PWs)   bands (ev):

   -61.1807 -61.1798 -61.1764 -61.1728 -35.1950 -35.1928 -35.1859 -35.1814
   -35.1158 -35.0702 -35.0523 -35.0246 -35.0224 -35.0081 -34.9957 -34.9939
   -14.2535 -14.1503 -13.2687 -13.1586 -13.1046 -13.0803 -12.7578 -12.7327
   -12.6095 -12.5800  -1.1388  -1.1252  -1.0353  -0.9440  -0.9087  -0.5629
    -0.4260  -0.1898  -0.1459  -0.0117   0.4436   0.5555   0.6182   0.9901
     1.0923   1.3090   1.4626   1.4718   1.6111   1.6950   1.8229   1.9148
     2.1673   2.1739   2.1789   2.3509   2.4008   2.6083   2.6712   2.7642

          k = 0.3333 0.0000 0.0000 (  9104 PWs)   bands (ev):

   -61.1795 -61.1776 -61.1765 -61.1742 -35.1889 -35.1869 -35.1830 -35.1797
   -35.1129 -35.0910 -35.0777 -35.0703 -35.0331 -35.0275 -35.0146 -35.0066
   -13.7761 -13.6525 -13.2213 -13.0749 -13.0694 -13.0551 -12.6853 -12.6848
   -12.6476 -12.6251  -1.5750  -1.5044  -0.8100  -0.7602  -0.7130  -0.3558
    -0.2595   0.1049   0.1302   0.4164   0.4272   0.4811   0.8004   0.9172
     0.9616   0.9968   1.0129   1.1012   1.2555   1.2722   1.4502   1.4939
     1.5590   1.9329   2.2394   2.3106   2.4306   2.5929   2.7753   2.7984

          k = 0.3333 0.2548 0.0000 (  9110 PWs)   bands (ev):

   -61.1810 -61.1773 -61.1762 -61.1742 -35.1896 -35.1876 -35.1841 -35.1807
   -35.1129 -35.0909 -35.0776 -35.0702 -35.0331 -35.0277 -35.0146 -35.0067
   -13.7365 -13.6244 -13.1912 -13.0730 -13.0599 -13.0419 -12.6940 -12.6734
   -12.6199 -12.5968  -1.5725  -1.5014  -0.8499  -0.8168  -0.7867  -0.4515
    -0.4051  -0.2899  -0.1806  -0.0087   0.0597   0.1973   0.5581   0.5941
     0.6561   0.7418   0.8331   0.9339   1.0023   1.4578   1.6913   1.8659
     2.0768   2.1380   2.4604   2.6822   2.6930   2.8327   2.9074   2.9285

     highest occupied level (ev):     2.9285

!    total energy              =    -925.66805006 Ry
     Harris-Foulkes estimate   =    -925.66805006 Ry
     estimated scf accuracy    <          3.7E-11 Ry

     The total energy is the sum of the following terms:

     one-electron contribution =    -626.10439933 Ry
     hartree contribution      =     349.48222385 Ry
     xc contribution           =    -177.96916395 Ry
     ewald contribution        =    -471.07671063 Ry

     convergence has been achieved in  27 iterations

     Forces acting on atoms (cartesian axes, Ry/au):

     atom    1 type  1   force =     0.00000000   -0.01293274    0.00556034
     atom    2 type  1   force =     0.00000000    0.01293274   -0.00556034
     atom    3 type  1   force =     0.00000000    0.01293274    0.00556034
     atom    4 type  1   force =     0.00000000   -0.01293274   -0.00556034
     atom    5 type  2   force =     0.00000000    0.00098442    0.00397461
     atom    6 type  2   force =     0.00000000   -0.00098442   -0.00397461
     atom    7 type  2   force =     0.00000000   -0.00098442    0.00397461
     atom    8 type  2   force =     0.00000000    0.00098442   -0.00397461
     atom    9 type  2   force =     0.00000000    0.01256608   -0.00243630
     atom   10 type  2   force =     0.00000000   -0.01256608    0.00243630
     atom   11 type  2   force =     0.00000000   -0.01256608   -0.00243630
     atom   12 type  2   force =     0.00000000   -0.00255249    0.00000000
     atom   13 type  2   force =     0.00000000    0.00255249    0.00000000
     atom   14 type  2   force =     0.00000000    0.01256608    0.00243630

     Total force =     0.039092     Total SCF correction =     0.000015


     Computing stress (Cartesian axis) and pressure

          total   stress  (Ry/bohr**3)                   (kbar)     P= -242.11
  -0.00158932   0.00000000   0.00000000       -233.80      0.00      0.00
   0.00000000  -0.00169046   0.00000000          0.00   -248.68      0.00
   0.00000000   0.00000000  -0.00165769          0.00      0.00   -243.85


     BFGS Geometry Optimization

     number of scf cycles    =   1
     number of bfgs steps    =   0

     enthalpy new            =    -925.6680500571 Ry

     new trust radius        =       0.3071015091 bohr
     new conv_thr            =            1.0E-10 Ry

     new unit-cell volume =   1163.78265 a.u.^3 (   172.45479 Ang^3 )
     density =      3.50259 g/cm^3

CELL_PARAMETERS (alat=  6.76758343)
   0.960267106   0.000000000   0.000000000
   0.000000000   1.253080668   0.000000000
   0.000000000   0.000000000   3.120325777

ATOMIC_POSITIONS (crystal)
V        0.000000000   0.387052977   0.647982646
V        0.500000012   0.612947047   0.852017391
V        0.500000012   0.612947047   0.147982634
V        0.000000000   0.387052977   0.352017379
O        0.500000012   0.493723421   0.681401586
O        0.000000000   0.506276604   0.818598452
O        0.000000000   0.506276604   0.181401573
O        0.500000012   0.493723421   0.318598439
O        0.000000000   0.050333715   0.356686376
O        0.500000012   0.949666310   0.143313636
O        0.500000012   0.949666310   0.856686388
O        0.500000012   0.500304676   0.000000000
O        0.000000000   0.499695348   0.500000012
O        0.000000000   0.050333715   0.643313649



     Writing output data file v2o5.save/
     NEW-OLD atomic charge density approx. for the potential

     Check: negative core charge=   -0.000043
     extrapolated charge   96.95465, renormalised to  112.00000

     total cpu time spent up to now is       13.5 secs

     Self-consistent Calculation

     iteration #  1     ecut=    55.00 Ry     beta= 0.70
     Davidson diagonalization with overlap
     c_bands:  1 eigenvalues not converged
     c_bands:  1 eigenvalues not converged
     c_bands:  1 eigenvalues not converged
     c_bands:  2 eigenvalues not converged
     ethr =  1.00E-06,  avg # of iterations = 20.0

     total cpu time spent up to now is       16.7 secs

     total energy              =    -791.11460225 Ry
     Harris-Foulkes estimate   =   -1006.54580164 Ry
     estimated scf accuracy    <     143.50877753 Ry

     iteration #  2     ecut=    55.00 Ry     beta= 0.70
     Davidson diagonalization with overlap
     ethr =  1.00E-02,  avg # of iterations =  8.2

     total cpu time spent up to now is       18.7 secs

     total energy              =    -855.51172440 Ry
     Harris-Foulkes estimate   =   -1120.58128026 Ry
     estimated scf accuracy    <     763.27744503 Ry

     iteration #  3     ecut=    55.00 Ry     beta= 0.70
     Davidson diagonalization with overlap
     ethr =  1.00E-02,  avg # of iterations =  7.0

     total cpu time spent up to now is       20.1 secs

     total energy              =    -936.76148376 Ry
     Harris-Foulkes estimate   =    -953.04820633 Ry
     estimated scf accuracy    <      70.64186015 Ry

     iteration #  4     ecut=    55.00 Ry     beta= 0.70
     Davidson diagonalization with overlap
     ethr =  1.00E-02,  avg # of iterations =  4.2

     total cpu time spent up to now is       20.9 secs

     total energy              =    -931.88253433 Ry
     Harris-Foulkes estimate   =    -939.26848487 Ry
     estimated scf accuracy    <      37.15350454 Ry

     iteration #  5     ecut=    55.00 Ry     beta= 0.70
     Davidson diagonalization with overlap
     ethr =  1.00E-02,  avg # of iterations =  1.0

     total cpu time spent up to now is       21.3 secs

     total energy              =    -927.02633411 Ry
     Harris-Foulkes estimate   =    -932.39235210 Ry
     estimated scf accuracy    <      23.12024137 Ry

     iteration #  6     ecut=    55.00 Ry     beta= 0.70
     Davidson diagonalization with overlap
     ethr =  1.00E-02,  avg # of iterations =  2.2

     total cpu time spent up to now is       21.8 secs

     total energy              =    -926.63402290 Ry
     Harris-Foulkes estimate   =    -927.81782509 Ry
     estimated scf accuracy    <      10.57261283 Ry

     iteration #  7     ecut=    55.00 Ry     beta= 0.70
     Davidson diagonalization with overlap
     ethr =  9.44E-03,  avg # of iterations =  1.0

     total cpu time spent up to now is       22.2 secs

     total energy              =    -925.69578053 Ry
     Harris-Foulkes estimate   =    -926.82590741 Ry
     estimated scf accuracy    <       8.40376351 Ry

     iteration #  8     ecut=    55.00 Ry     beta= 0.70
     Davidson diagonalization with overlap
     ethr =  7.50E-03,  avg # of iterations =  1.5

     total cpu time spent up to now is       22.6 secs

     total energy              =    -924.95952926 Ry
     Harris-Foulkes estimate   =    -925.91641416 Ry
     estimated scf accuracy    <       5.34514208 Ry

     iteration #  9     ecut=    55.00 Ry     beta= 0.70
     Davidson diagonalization with overlap
     ethr =  4.77E-03,  avg # of iterations =  4.2

     total cpu time spent up to now is       23.3 secs

     total energy              =    -925.70466200 Ry
     Harris-Foulkes estimate   =    -925.54750150 Ry
     estimated scf accuracy    <       1.29168311 Ry

     iteration # 10     ecut=    55.00 Ry     beta= 0.70
     Davidson diagonalization with overlap
     ethr =  1.15E-03,  avg # of iterations =  4.0

     negative rho (up, down):  1.475E-02 0.000E+00

     total cpu time spent up to now is       23.9 secs

     total energy              =    -925.36320733 Ry
     Harris-Foulkes estimate   =    -925.93783697 Ry
     estimated scf accuracy    <       0.86817023 Ry

     iteration # 11     ecut=    55.00 Ry     beta= 0.70
     Davidson diagonalization with overlap
     ethr =  7.75E-04,  avg # of iterations =  7.5

     total cpu time spent up to now is       25.1 secs

     total energy              =    -928.19591670 Ry
     Harris-Foulkes estimate   =    -928.93050997 Ry
     estimated scf accuracy    <      38.08675033 Ry

     iteration # 12     ecut=    55.00 Ry     beta= 0.70
     Davidson diagonalization with overlap
     ethr =  7.75E-04,  avg # of iterations =  4.5

     total cpu time spent up to now is       25.8 secs

     total energy              =    -926.86141043 Ry
     Harris-Foulkes estimate   =    -928.29919316 Ry
     estimated scf accuracy    <      35.33772861 Ry

     iteration # 13     ecut=    55.00 Ry     beta= 0.70
     Davidson diagonalization with overlap
     ethr =  7.75E-04,  avg # of iterations =  4.8

     total cpu time spent up to now is       26.6 secs

     total energy              =    -926.45720436 Ry
     Harris-Foulkes estimate   =    -927.10296411 Ry
     estimated scf accuracy    <      17.38021351 Ry

     iteration # 14     ecut=    55.00 Ry     beta= 0.70
     Davidson diagonalization with overlap
     ethr =  7.75E-04,  avg # of iterations =  4.2

     total cpu time spent up to now is       27.2 secs

     total energy              =    -925.73259177 Ry
     Harris-Foulkes estimate   =    -926.52123212 Ry
     estimated scf accuracy    <      11.85715311 Ry

     iteration # 15     ecut=    55.00 Ry     beta= 0.70
     Davidson diagonalization with overlap
     ethr =  7.75E-04,  avg # of iterations =  4.0

     total cpu time spent up to now is       28.0 secs

     total energy              =    -925.61383421 Ry
     Harris-Foulkes estimate   =    -925.98480019 Ry
     estimated scf accuracy    <       3.16230192 Ry

     iteration # 16     ecut=    55.00 Ry     beta= 0.70
     Davidson diagonalization with overlap
     ethr =  7.75E-04,  avg # of iterations =  3.8

     total cpu time spent up to now is       28.5 secs

     total energy              =    -925.48989018 Ry
     Harris-Foulkes estimate   =    -925.67488175 Ry
     estimated scf accuracy    <       1.31031155 Ry

     iteration # 17     ecut=    55.00 Ry     beta= 0.70
     Davidson diagonalization with overlap
     ethr =  7.75E-04,  avg # of iterations =  3.8

     total cpu time spent up to now is       29.2 secs

     total energy              =    -925.62507249 Ry
     Harris-Foulkes estimate   =    -925.63397175 Ry
     estimated scf accuracy    <       0.05325271 Ry

     iteration # 18     ecut=    55.00 Ry     beta= 0.70
     Davidson diagonalization with overlap
     ethr =  4.75E-05,  avg # of iterations =  5.2

     total cpu time spent up to now is       29.9 secs

     total energy              =    -925.73698938 Ry
     Harris-Foulkes estimate   =    -925.73878187 Ry
     estimated scf accuracy    <       0.02217465 Ry

     iteration # 19     ecut=    55.00 Ry     beta= 0.70
     Davidson diagonalization with overlap
     ethr =  1.98E-05,  avg # of iterations =  1.0

     total cpu time spent up to now is       30.4 secs

     total energy              =    -925.73367901 Ry
     Harris-Foulkes estimate   =    -925.73733935 Ry
     estimated scf accuracy    <       0.01873397 Ry

     iteration # 20     ecut=    55.00 Ry     beta= 0.70
     Davidson diagonalization with overlap
     ethr =  1.67E-05,  avg # of iterations =  2.8

     total cpu time spent up to now is       30.9 secs

     total energy              =    -925.73319897 Ry
     Harris-Foulkes estimate   =    -925.73439310 Ry
     estimated scf accuracy    <       0.00828172 Ry

     iteration # 21     ecut=    55.00 Ry     beta= 0.70
     Davidson diagonalization with overlap
     ethr =  7.39E-06,  avg # of iterations =  4.0

     total cpu time spent up to now is       31.5 secs

     total energy              =    -925.73382413 Ry
     Harris-Foulkes estimate   =    -925.73411551 Ry
     estimated scf accuracy    <       0.00294194 Ry

     iteration # 22     ecut=    55.00 Ry     beta= 0.70
     Davidson diagonalization with overlap
     ethr =  2.63E-06,  avg # of iterations =  3.8

     total cpu time spent up to now is       32.1 secs

     total energy              =    -925.73357552 Ry
     Harris-Foulkes estimate   =    -925.73412195 Ry
     estimated scf accuracy    <       0.00249332 Ry

     iteration # 23     ecut=    55.00 Ry     beta= 0.70
     Davidson diagonalization with overlap
     ethr =  2.23E-06,  avg # of iterations =  4.0

     total cpu time spent up to now is       32.8 secs

     total energy              =    -925.73371889 Ry
     Harris-Foulkes estimate   =    -925.73401048 Ry
     estimated scf accuracy    <       0.00224488 Ry

     iteration # 24     ecut=    55.00 Ry     beta= 0.70
     Davidson diagonalization with overlap
     ethr =  2.00E-06,  avg # of iterations =  3.0

     total cpu time spent up to now is       33.3 secs

     total energy              =    -925.73372942 Ry
     Harris-Foulkes estimate   =    -925.73388689 Ry
     estimated scf accuracy    <       0.00179775 Ry

     iteration # 25     ecut=    55.00 Ry     beta= 0.70
     Davidson diagonalization with overlap
     ethr =  1.61E-06,  avg # of iterations =  1.0

     total cpu time spent up to now is       33.7 secs

     total energy              =    -925.73342040 Ry
     Harris-Foulkes estimate   =    -925.73376026 Ry
     estimated scf accuracy    <       0.00139600 Ry

     iteration # 26     ecut=    55.00 Ry     beta= 0.70
     Davidson diagonalization with overlap
     ethr =  1.25E-06,  avg # of iterations =  4.0

     total cpu time spent up to now is       34.5 secs

     total energy              =    -925.73358057 Ry
     Harris-Foulkes estimate   =    -925.73387813 Ry
     estimated scf accuracy    <       0.00159045 Ry

     iteration # 27     ecut=    55.00 Ry     beta= 0.70
     Davidson diagonalization with overlap
     ethr =  1.25E-06,  avg # of iterations =  3.8

     total cpu time spent up to now is       35.2 secs

     total energy              =    -925.73332699 Ry
     Harris-Foulkes estimate   =    -925.73375039 Ry
     estimated scf accuracy    <       0.00114161 Ry

     iteration # 28     ecut=    55.00 Ry     beta= 0.70
     Davidson diagonalization with overlap
     ethr =  1.02E-06,  avg # of iterations =  4.0

     total cpu time spent up to now is       36.0 secs

     total energy              =    -925.73351421 Ry
     Harris-Foulkes estimate   =    -925.73367286 Ry
     estimated scf accuracy    <       0.00054927 Ry

     iteration # 29     ecut=    55.00 Ry     beta= 0.70
     Davidson diagonalization with overlap
     ethr =  4.90E-07,  avg # of iterations =  4.0

     total cpu time spent up to now is       36.6 secs

     total energy              =    -925.73356341 Ry
     Harris-Foulkes estimate   =    -925.73357825 Ry
     estimated scf accuracy    <       0.00005739 Ry

     iteration # 30     ecut=    55.00 Ry     beta= 0.70
     Davidson diagonalization with overlap
     ethr =  5.12E-08,  avg # of iterations =  4.5

     total cpu time spent up to now is       37.5 secs

     total energy              =    -925.73358068 Ry
     Harris-Foulkes estimate   =    -925.73359101 Ry
     estimated scf accuracy    <       0.00006982 Ry

     iteration # 31     ecut=    55.00 Ry     beta= 0.70
     Davidson diagonalization with overlap
     ethr =  5.12E-08,  avg # of iterations =  1.5

     total cpu time spent up to now is       37.9 secs

     total energy              =    -925.73357606 Ry
     Harris-Foulkes estimate   =    -925.73358212 Ry
     estimated scf accuracy    <       0.00004104 Ry

     iteration # 32     ecut=    55.00 Ry     beta= 0.70
     Davidson diagonalization with overlap
     ethr =  3.66E-08,  avg # of iterations =  3.0

     total cpu time spent up to now is       38.5 secs

     total energy              =    -925.73357897 Ry
     Harris-Foulkes estimate   =    -925.73357996 Ry
     estimated scf accuracy    <       0.00000567 Ry

     iteration # 33     ecut=    55.00 Ry     beta= 0.70
     Davidson diagonalization with overlap
     ethr =  5.06E-09,  avg # of iterations =  4.0

     total cpu time spent up to now is       39.2 secs

     total energy              =    -925.73358066 Ry
     Harris-Foulkes estimate   =    -925.73358127 Ry
     estimated scf accuracy    <       0.00000271 Ry

     iteration # 34     ecut=    55.00 Ry     beta= 0.70
     Davidson diagonalization with overlap
     ethr =  2.42E-09,  avg # of iterations =  3.2

     total cpu time spent up to now is       39.8 secs

     total energy              =    -925.73358052 Ry
     Harris-Foulkes estimate   =    -925.73358080 Ry
     estimated scf accuracy    <       0.00000110 Ry

     iteration # 35     ecut=    55.00 Ry     beta= 0.70
     Davidson diagonalization with overlap
     ethr =  9.79E-10,  avg # of iterations =  4.0

     total cpu time spent up to now is       40.5 secs

     total energy              =    -925.73358076 Ry
     Harris-Foulkes estimate   =    -925.73358077 Ry
     estimated scf accuracy    <       0.00000009 Ry

     iteration # 36     ecut=    55.00 Ry     beta= 0.70
     Davidson diagonalization with overlap
     ethr =  8.04E-11,  avg # of iterations =  3.8

     total cpu time spent up to now is       41.1 secs

     total energy              =    -925.73358076 Ry
     Harris-Foulkes estimate   =    -925.73358077 Ry
     estimated scf accuracy    <       0.00000006 Ry

     iteration # 37     ecut=    55.00 Ry     beta= 0.70
     Davidson diagonalization with overlap
     ethr =  4.96E-11,  avg # of iterations =  3.2

     total cpu time spent up to now is       41.6 secs

     total energy              =    -925.73358076 Ry
     Harris-Foulkes estimate   =    -925.73358076 Ry
     estimated scf accuracy    <       0.00000004 Ry

     iteration # 38     ecut=    55.00 Ry     beta= 0.70
     Davidson diagonalization with overlap
     ethr =  3.88E-11,  avg # of iterations =  3.8

     total cpu time spent up to now is       42.2 secs

     total energy              =    -925.73358076 Ry
     Harris-Foulkes estimate   =    -925.73358076 Ry
     estimated scf accuracy    <       0.00000004 Ry

     iteration # 39     ecut=    55.00 Ry     beta= 0.70
     Davidson diagonalization with overlap
     ethr =  3.30E-11,  avg # of iterations =  1.0

     total cpu time spent up to now is       42.6 secs

     total energy              =    -925.73358076 Ry
     Harris-Foulkes estimate   =    -925.73358076 Ry
     estimated scf accuracy    <       0.00000003 Ry

     iteration # 40     ecut=    55.00 Ry     beta= 0.70
     Davidson diagonalization with overlap
     ethr =  2.56E-11,  avg # of iterations =  2.5

     total cpu time spent up to now is       43.1 secs

     total energy              =    -925.73358076 Ry
     Harris-Foulkes estimate   =    -925.73358076 Ry
     estimated scf accuracy    <       0.00000001 Ry

     iteration # 41     ecut=    55.00 Ry     beta= 0.70
     Davidson diagonalization with overlap
     ethr =  9.92E-12,  avg # of iterations =  4.0

     total cpu time spent up to now is       43.9 secs

     total energy              =    -925.73358076 Ry
     Harris-Foulkes estimate   =    -925.73358076 Ry
     estimated scf accuracy    <          8.9E-10 Ry

     iteration # 42     ecut=    55.00 Ry     beta= 0.70
     Davidson diagonalization with overlap
     ethr =  7.90E-13,  avg # of iterations =  4.8

     total cpu time spent up to now is       44.9 secs

     total energy              =    -925.73358076 Ry
     Harris-Foulkes estimate   =    -925.73358076 Ry
     estimated scf accuracy    <          8.1E-09 Ry

     iteration # 43     ecut=    55.00 Ry     beta= 0.70
     Davidson diagonalization with overlap
     ethr =  7.90E-13,  avg # of iterations =  5.0

     total cpu time spent up to now is       46.0 secs

     total energy              =    -925.73358076 Ry
     Harris-Foulkes estimate   =    -925.73358076 Ry
     estimated scf accuracy    <          3.3E-10 Ry

     iteration # 44     ecut=    55.00 Ry     beta= 0.70
     Davidson diagonalization with overlap
     ethr =  2.96E-13,  avg # of iterations =  4.5

     total cpu time spent up to now is       47.1 secs

     total energy              =    -925.73358076 Ry
     Harris-Foulkes estimate   =    -925.73358076 Ry
     estimated scf accuracy    <          2.3E-09 Ry

     iteration # 45     ecut=    55.00 Ry     beta= 0.70
     Davidson diagonalization with overlap
     ethr =  2.96E-13,  avg # of iterations =  4.0

     total cpu time spent up to now is       47.9 secs

     total energy              =    -925.73358076 Ry
     Harris-Foulkes estimate   =    -925.73358076 Ry
     estimated scf accuracy    <          2.8E-10 Ry

     iteration # 46     ecut=    55.00 Ry     beta= 0.70
     Davidson diagonalization with overlap
     ethr =  2.46E-13,  avg # of iterations =  3.0

     total cpu time spent up to now is       48.4 secs

     End of self-consistent calculation

          k = 0.0000 0.0000 0.0000 (  9047 PWs)   bands (ev):

   -59.3196 -59.3168 -59.3040 -59.2996 -33.5922 -33.5886 -33.5746 -33.5682
   -33.3146 -33.2366 -33.2045 -33.1609 -33.1571 -33.1280 -33.1118 -33.1079
   -13.3089 -13.1683 -12.0632 -12.0051 -11.8923 -11.7557 -11.3712 -11.3621
   -11.1929 -11.1855  -0.1511  -0.1313  -0.0689  -0.0550   0.2920   0.6413
     1.1893   1.2428   1.4693   1.6681   1.8130   1.8617   2.1376   2.1523
     2.3435   2.3440   2.3671   2.4600   2.5601   2.6113   2.7874   2.8799
     3.0033   3.3618   3.5759   3.6040   3.6196   3.7618   3.7955   3.9629

          k = 0.0000 0.2660 0.0000 (  9075 PWs)   bands (ev):

   -59.3194 -59.3175 -59.3054 -59.3013 -33.5935 -33.5899 -33.5778 -33.5713
   -33.3143 -33.2362 -33.2046 -33.1608 -33.1570 -33.1280 -33.1118 -33.1080
   -13.2467 -13.1165 -12.0186 -11.9860 -11.8767 -11.7332 -11.3826 -11.3470
   -11.1804 -11.1372  -0.1974  -0.1771  -0.1192  -0.1036   0.0064   0.2230
     0.6571   0.7612   0.8224   0.8886   1.5531   1.5848   1.6260   2.1561
     2.1778   2.4002   2.6404   2.8158   2.8620   2.9973   3.0415   3.1763
     3.5172   3.5924   3.5988   3.6623   3.7188   3.9334   4.0536   4.1107

          k = 0.3471 0.0000 0.0000 (  9104 PWs)   bands (ev):

   -59.3142 -59.3108 -59.3065 -59.3030 -33.5831 -33.5792 -33.5732 -33.5678
   -33.3098 -33.2725 -33.2525 -33.2398 -33.1742 -33.1664 -33.1418 -33.1260
   -12.6526 -12.4912 -11.9545 -11.8092 -11.7592 -11.6903 -11.2926 -11.2873
   -11.2360 -11.2098  -0.6680  -0.5468   0.1333   0.2412   0.4023   0.7135
     0.7432   1.0259   1.1062   1.3316   1.3852   1.3976   1.8699   2.0082
     2.0627   2.2014   2.2238   2.3163   2.4403   2.6351   2.6562   2.7562
     2.7725   3.1472   3.4823   3.6533   3.6545   3.8399   4.0930   4.2058

          k = 0.3471 0.2660 0.0000 (  9110 PWs)   bands (ev):

   -59.3149 -59.3101 -59.3069 -59.3031 -33.5847 -33.5808 -33.5757 -33.5703
   -33.3095 -33.2723 -33.2522 -33.2395 -33.1742 -33.1664 -33.1418 -33.1260
   -12.5984 -12.4520 -11.9276 -11.8067 -11.7307 -11.6718 -11.2924 -11.2595
   -11.1909 -11.1554  -0.6643  -0.5458   0.0402   0.1334   0.1891   0.3362
     0.6293   0.6433   0.7903   0.8986   1.0323   1.2721   1.6487   1.7459
     1.7897   1.8644   2.0173   2.0714   2.1473   2.5632   2.8845   3.1039
     3.4035   3.5281   3.7295   3.9595   4.0480   4.1545   4.2620   4.3388

     highest occupied level (ev):     4.3388

!    total energy              =    -925.73358076 Ry
     Harris-Foulkes estimate   =    -925.73358076 Ry
     estimated scf accuracy    <          8.9E-11 Ry

     The total energy is the sum of the following terms:

     one-electron contribution =    -597.92173816 Ry
     hartree contribution      =     341.83182847 Ry
     xc contribution           =    -179.29148365 Ry
     ewald contribution        =    -490.35218743 Ry

     convergence has been achieved in  46 iterations

     Forces acting on atoms (cartesian axes, Ry/au):

     atom    1 type  1   force =    -0.00000000    0.12633324    0.02676856
     atom    2 type  1   force =     0.00000000   -0.12633324   -0.02676856
     atom    3 type  1   force =     0.00000000   -0.12633324    0.02676856
     atom    4 type  1   force =     0.00000000    0.12633324   -0.02676856
     atom    5 type  2   force =    -0.00000000    0.01972258   -0.01690678
     atom    6 type  2   force =     0.00000000   -0.01972258    0.01690678
     atom    7 type  2   force =     0.00000000   -0.01972258   -0.01690678
     atom    8 type  2   force =    -0.00000000    0.01972258    0.01690678
     atom    9 type  2   force =     0.00000000   -0.19076563    0.00642420
     atom   10 type  2   force =     0.00000000    0.19076563   -0.00642420
     atom   11 type  2   force =     0.00000000    0.19076563    0.00642420
     atom   12 type  2   force =    -0.00000000   -0.04799065   -0.00000000
     atom   13 type  2   force =     0.00000000    0.04799065    0.00000000
     atom   14 type  2   force =     0.00000000   -0.19076563   -0.00642420

     Total force =     0.468768     Total SCF correction =     0.000017


     Computing stress (Cartesian axis) and pressure

          total   stress  (Ry/bohr**3)                   (kbar)     P=  131.76
   0.00064549   0.00000000   0.00000000         94.95      0.00      0.00
   0.00000000   0.00134654   0.00000000          0.00    198.08      0.00
   0.00000000   0.00000000   0.00069513          0.00      0.00    102.26


     number of scf cycles    =   2
     number of bfgs steps    =   1

     enthalpy old            =    -925.6680500571 Ry
     enthalpy new            =    -925.7335807589 Ry

     CASE: enthalpy_new < enthalpy_old

     new trust radius        =       0.1089228098 bohr
     new conv_thr            =            1.0E-10 Ry

     new unit-cell volume =   1167.50556 a.u.^3 (   173.00647 Ang^3 )
     density =      3.49142 g/cm^3

CELL_PARAMETERS (alat=  6.76758343)
   0.958000006   0.000000000   0.000000000
   0.000000000   1.262729993   0.000000000
   0.000000000   0.000000000   3.113738182

ATOMIC_POSITIONS (crystal)
V        0.000000000   0.395401009   0.648806021
V        0.500000012   0.604599014   0.851194015
V        0.500000012   0.604599014   0.148806009
V        0.000000000   0.395401009   0.351194003
O        0.500000012   0.495127306   0.680982366
O        0.000000000   0.504872718   0.819017670
O        0.000000000   0.504872718   0.180982353
O        0.500000012   0.495127306   0.319017659
O        0.000000000   0.037494745   0.356833199
O        0.500000012   0.962505279   0.143166813
O        0.500000012   0.962505279   0.856833211
O        0.500000012   0.496883357  -0.000000000
O        0.000000000   0.503116666   0.500000012
O        0.000000000   0.037494745   0.643166825



     Writing output data file v2o5.save/
     NEW-OLD atomic charge density approx. for the potential

     Check: negative core charge=   -0.000043
     extrapolated charge  112.35713, renormalised to  112.00000

     total cpu time spent up to now is       49.9 secs

     Self-consistent Calculation

     iteration #  1     ecut=    55.00 Ry     beta= 0.70
     Davidson diagonalization with overlap
     ethr =  1.00E-06,  avg # of iterations = 10.0

     total cpu time spent up to now is       51.9 secs

     total energy              =    -925.62627316 Ry
     Harris-Foulkes estimate   =    -924.24558056 Ry
     estimated scf accuracy    <       0.17471078 Ry

     iteration #  2     ecut=    55.00 Ry     beta= 0.70
     Davidson diagonalization with overlap
     ethr =  1.56E-04,  avg # of iterations =  7.8

     total cpu time spent up to now is       53.1 secs

     total energy              =    -925.20366314 Ry
     Harris-Foulkes estimate   =    -926.30723762 Ry
     estimated scf accuracy    <       6.76322949 Ry

     iteration #  3     ecut=    55.00 Ry     beta= 0.70
     Davidson diagonalization with overlap
     ethr =  1.56E-04,  avg # of iterations =  5.0

     total cpu time spent up to now is       54.3 secs

     total energy              =    -925.75949199 Ry
     Harris-Foulkes estimate   =    -925.76722892 Ry
     estimated scf accuracy    <       0.01442228 Ry

     iteration #  4     ecut=    55.00 Ry     beta= 0.70
     Davidson diagonalization with overlap
     ethr =  1.29E-05,  avg # of iterations =  4.0

     total cpu time spent up to now is       55.2 secs

     total energy              =    -925.76204266 Ry
     Harris-Foulkes estimate   =    -925.76472212 Ry
     estimated scf accuracy    <       0.00694152 Ry

     iteration #  5     ecut=    55.00 Ry     beta= 0.70
     Davidson diagonalization with overlap
     ethr =  6.20E-06,  avg # of iterations =  4.5

     total cpu time spent up to now is       55.9 secs

     total energy              =    -925.76321739 Ry
     Harris-Foulkes estimate   =    -925.76347020 Ry
     estimated scf accuracy    <       0.00075429 Ry

     iteration #  6     ecut=    55.00 Ry     beta= 0.70
     Davidson diagonalization with overlap
     ethr =  6.73E-07,  avg # of iterations =  5.2

     total cpu time spent up to now is       56.9 secs

     total energy              =    -925.76336528 Ry
     Harris-Foulkes estimate   =    -925.76365054 Ry
     estimated scf accuracy    <       0.00089422 Ry

     iteration #  7     ecut=    55.00 Ry     beta= 0.70
     Davidson diagonalization with overlap
     ethr =  6.73E-07,  avg # of iterations =  4.0

     total cpu time spent up to now is       57.6 secs

     total energy              =    -925.76346189 Ry
     Harris-Foulkes estimate   =    -925.76347037 Ry
     estimated scf accuracy    <       0.00003540 Ry

     iteration #  8     ecut=    55.00 Ry     beta= 0.70
     Davidson diagonalization with overlap
     ethr =  3.16E-08,  avg # of iterations =  5.0

     total cpu time spent up to now is       58.6 secs

     total energy              =    -925.76347970 Ry
     Harris-Foulkes estimate   =    -925.76348167 Ry
     estimated scf accuracy    <       0.00000648 Ry

     iteration #  9     ecut=    55.00 Ry     beta= 0.70
     Davidson diagonalization with overlap
     ethr =  5.79E-09,  avg # of iterations =  4.0

     total cpu time spent up to now is       59.2 secs

     total energy              =    -925.76348024 Ry
     Harris-Foulkes estimate   =    -925.76348039 Ry
     estimated scf accuracy    <       0.00000044 Ry

     iteration # 10     ecut=    55.00 Ry     beta= 0.70
     Davidson diagonalization with overlap
     ethr =  3.91E-10,  avg # of iterations =  5.0

     total cpu time spent up to now is       60.3 secs

     total energy              =    -925.76348043 Ry
     Harris-Foulkes estimate   =    -925.76348048 Ry
     estimated scf accuracy    <       0.00000020 Ry

     iteration # 11     ecut=    55.00 Ry     beta= 0.70
     Davidson diagonalization with overlap
     ethr =  1.83E-10,  avg # of iterations =  2.5

     total cpu time spent up to now is       60.8 secs

     total energy              =    -925.76348043 Ry
     Harris-Foulkes estimate   =    -925.76348044 Ry
     estimated scf accuracy    <       0.00000006 Ry

     iteration # 12     ecut=    55.00 Ry     beta= 0.70
     Davidson diagonalization with overlap
     ethr =  4.95E-11,  avg # of iterations =  4.0

     total cpu time spent up to now is       61.6 secs

     total energy              =    -925.76348045 Ry
     Harris-Foulkes estimate   =    -925.76348045 Ry
     estimated scf accuracy    <       0.00000003 Ry

     iteration # 13     ecut=    55.00 Ry     beta= 0.70
     Davidson diagonalization with overlap
     ethr =  2.51E-11,  avg # of iterations =  1.0

     total cpu time spent up to now is       62.0 secs

     total energy              =    -925.76348045 Ry
     Harris-Foulkes estimate   =    -925.76348045 Ry
     estimated scf accuracy    <       0.00000002 Ry

     iteration # 14     ecut=    55.00 Ry     beta= 0.70
     Davidson diagonalization with overlap
     ethr =  1.76E-11,  avg # of iterations =  1.0

     total cpu time spent up to now is       62.5 secs

     total energy              =    -925.76348045 Ry
     Harris-Foulkes estimate   =    -925.76348045 Ry
     estimated scf accuracy    <       0.00000001 Ry

     iteration # 15     ecut=    55.00 Ry     beta= 0.70
     Davidson diagonalization with overlap
     ethr =  1.26E-11,  avg # of iterations =  4.0

     total cpu time spent up to now is       63.1 secs

     total energy              =    -925.76348045 Ry
     Harris-Foulkes estimate   =    -925.76348045 Ry
     estimated scf accuracy    <          9.2E-10 Ry

     iteration # 16     ecut=    55.00 Ry     beta= 0.70
     Davidson diagonalization with overlap
     ethr =  8.19E-13,  avg # of iterations =  4.0

     total cpu time spent up to now is       63.9 secs

     total energy              =    -925.76348045 Ry
     Harris-Foulkes estimate   =    -925.76348045 Ry
     estimated scf accuracy    <          1.6E-09 Ry

     iteration # 17     ecut=    55.00 Ry     beta= 0.70
     Davidson diagonalization with overlap
     ethr =  8.19E-13,  avg # of iterations =  1.5

     total cpu time spent up to now is       64.3 secs

     total energy              =    -925.76348045 Ry
     Harris-Foulkes estimate   =    -925.76348045 Ry
     estimated scf accuracy    <          9.9E-10 Ry

     iteration # 18     ecut=    55.00 Ry     beta= 0.70
     Davidson diagonalization with overlap
     ethr =  8.19E-13,  avg # of iterations =  4.2

     total cpu time spent up to now is       65.2 secs

     total energy              =    -925.76348045 Ry
     Harris-Foulkes estimate   =    -925.76348045 Ry
     estimated scf accuracy    <          1.8E-09 Ry

     iteration # 19     ecut=    55.00 Ry     beta= 0.70
     Davidson diagonalization with overlap
     ethr =  8.19E-13,  avg # of iterations =  3.5

     total cpu time spent up to now is       65.8 secs

     total energy              =    -925.76348045 Ry
     Harris-Foulkes estimate   =    -925.76348045 Ry
     estimated scf accuracy    <          6.8E-10 Ry

     iteration # 20     ecut=    55.00 Ry     beta= 0.70
     Davidson diagonalization with overlap
     ethr =  6.06E-13,  avg # of iterations =  4.0

     total cpu time spent up to now is       66.4 secs

     End of self-consistent calculation

          k = 0.0000 0.0000 0.0000 (  9047 PWs)   bands (ev):

   -59.5815 -59.5794 -59.5631 -59.5588 -33.6519 -33.5866 -33.5440 -33.5075
   -33.5039 -33.4939 -33.4879 -33.4748 -33.4538 -33.4495 -33.4458 -33.4243
   -13.6688 -13.5379 -12.4508 -12.4353 -12.1469 -11.9836 -11.1674 -11.1334
   -10.9531 -10.9268  -0.4522  -0.4489  -0.4311  -0.3923   0.0860   0.5969
     0.9988   1.3488   1.5774   1.7317   1.9376   1.9946   2.3633   2.4015
     2.4956   2.5303   2.6470   2.7575   2.9446   2.9850   3.0532   3.1661
     3.2629   3.2648   3.2717   3.5455   3.8735   3.9122   3.9174   4.1184

          k = 0.0000 0.2640 0.0000 (  9075 PWs)   bands (ev):

   -59.5818 -59.5800 -59.5640 -59.5604 -33.6519 -33.5869 -33.5451 -33.5075
   -33.5038 -33.4961 -33.4889 -33.4756 -33.4554 -33.4495 -33.4458 -33.4247
   -13.6269 -13.5033 -12.4361 -12.4244 -12.1227 -11.9709 -11.1592 -11.1041
   -10.9242 -10.8649  -0.4791  -0.4623  -0.4576  -0.4144  -0.0593   0.3228
     0.5794   0.7954   0.9906   1.1506   1.7626   1.8410   1.8595   2.3365
     2.4196   2.4883   2.5246   2.6832   2.9355   3.3012   3.3880   3.4146
     3.4713   3.5266   3.6778   3.8164   3.8168   3.9827   4.0968   4.2919

          k = 0.3479 0.0000 0.0000 (  9104 PWs)   bands (ev):

   -59.5754 -59.5728 -59.5660 -59.5626 -33.6510 -33.6137 -33.6083 -33.5901
   -33.5201 -33.5117 -33.4842 -33.4779 -33.4694 -33.4637 -33.4562 -33.4328
   -12.9803 -12.8344 -12.2768 -12.1968 -12.0226 -11.9231 -11.0741 -11.0437
   -10.9743 -10.9547  -1.0671  -0.9589  -0.1925  -0.0755   0.2014   0.4298
     0.4588   0.8378   1.0509   1.3062   1.4714   1.7271   2.0130   2.1696
     2.2852   2.4990   2.5949   2.6496   2.8321   2.8734   2.8838   2.9924
     3.1298   3.1458   3.5162   3.7957   3.9016   3.9690   3.9832   4.0512

          k = 0.3479 0.2640 0.0000 (  9110 PWs)   bands (ev):

   -59.5761 -59.5720 -59.5664 -59.5625 -33.6509 -33.6135 -33.6084 -33.5899
   -33.5212 -33.5123 -33.4861 -33.4786 -33.4702 -33.4642 -33.4574 -33.4331
   -12.9468 -12.8105 -12.2701 -12.1944 -11.9967 -11.9117 -11.0509 -10.9980
   -10.9330 -10.8792  -1.0678  -0.9598  -0.2242  -0.1136   0.1117   0.3485
     0.3726   0.4569   0.7464   1.0564   1.1509   1.2362   1.6048   1.8719
     1.9377   2.0752   2.2442   2.3076   2.5431   2.8309   3.0253   3.4704
     3.4838   3.6707   3.9581   4.0036   4.0830   4.1350   4.2446   4.3225

     highest occupied level (ev):     4.3225

!    total energy              =    -925.76348045 Ry
     Harris-Foulkes estimate   =    -925.76348045 Ry
     estimated scf accuracy    <          7.9E-11 Ry

     The total energy is the sum of the following terms:

     one-electron contribution =    -586.62850935 Ry
     hartree contribution      =     335.63902827 Ry
     xc contribution           =    -178.81370166 Ry
     ewald contribution        =    -495.96029771 Ry

     convergence has been achieved in  20 iterations

     Forces acting on atoms (cartesian axes, Ry/au):

     atom    1 type  1   force =     0.00000000   -0.10653563   -0.00610539
     atom    2 type  1   force =     0.00000000    0.10653563    0.00610539
     atom    3 type  1   force =     0.00000000    0.10653563   -0.00610539
     atom    4 type  1   force =    -0.00000000   -0.10653563    0.00610539
     atom    5 type  2   force =     0.00000000    0.02239028   -0.01514335
     atom    6 type  2   force =     0.00000000   -0.02239028    0.01514335
     atom    7 type  2   force =     0.00000000   -0.02239028   -0.01514335
     atom    8 type  2   force =    -0.00000000    0.02239028    0.01514335
     atom    9 type  2   force =     0.00000000    0.03566142   -0.00070001
     atom   10 type  2   force =    -0.00000000   -0.03566142    0.00070001
     atom   11 type  2   force =    -0.00000000   -0.03566142   -0.00070001
     atom   12 type  2   force =     0.00000000   -0.04111324   -0.00000000
     atom   13 type  2   force =     0.00000000    0.04111324    0.00000000
     atom   14 type  2   force =     0.00000000    0.03566142    0.00070001

     Total force =     0.238622     Total SCF correction =     0.000022


     Computing stress (Cartesian axis) and pressure

          total   stress  (Ry/bohr**3)                   (kbar)     P=   22.28
   0.00082740   0.00000000   0.00000000        121.71      0.00      0.00
   0.00000000  -0.00110144   0.00000000          0.00   -162.03      0.00
   0.00000000   0.00000000   0.00072846          0.00      0.00    107.16


     number of scf cycles    =   3
     number of bfgs steps    =   2

     enthalpy old            =    -925.7335807589 Ry
     enthalpy new            =    -925.7634804481 Ry

     CASE: enthalpy_new < enthalpy_old

     new trust radius        =       0.1324915925 bohr
     new conv_thr            =            1.0E-10 Ry

     new unit-cell volume =   1200.51843 a.u.^3 (   177.89847 Ang^3 )
     density =      3.39541 g/cm^3

CELL_PARAMETERS (alat=  6.76758343)
   0.976573532   0.000000000   0.000000000
   0.000000000   1.251081266   0.000000000
   0.000000000   0.000000000   3.170133163

ATOMIC_POSITIONS (crystal)
V        0.000000000   0.390330944   0.648865976
V        0.500000011   0.609669078   0.851134058
V        0.500000011   0.609669078   0.148865965
V       -0.000000000   0.390330944   0.351134046
O        0.500000011   0.497311644   0.680348351
O        0.000000000   0.502688379   0.819651684
O        0.000000000   0.502688379   0.180348339
O        0.500000011   0.497311644   0.319651672
O        0.000000000   0.035587968   0.356878960
O        0.500000011   0.964412054   0.143121051
O        0.500000011   0.964412054   0.856878972
O        0.500000011   0.492594007  -0.000000000
O        0.000000000   0.507406014   0.500000011
O        0.000000000   0.035587968   0.643121062



     Writing output data file v2o5.save/
     NEW-OLD atomic charge density approx. for the potential

     Check: negative core charge=   -0.000051
     extrapolated charge  115.07976, renormalised to  112.00000

     total cpu time spent up to now is       67.8 secs

     Self-consistent Calculation

     iteration #  1     ecut=    55.00 Ry     beta= 0.70
     Davidson diagonalization with overlap
     ethr =  1.00E-06,  avg # of iterations = 12.5

     total cpu time spent up to now is       70.2 secs

     total energy              =    -924.07232421 Ry
     Harris-Foulkes estimate   =    -912.84590917 Ry
     estimated scf accuracy    <       1.59291704 Ry

     iteration #  2     ecut=    55.00 Ry     beta= 0.70
     Davidson diagonalization with overlap
     ethr =  1.42E-03,  avg # of iterations =  9.0

     total cpu time spent up to now is       71.6 secs

     total energy              =    -920.24391508 Ry
     Harris-Foulkes estimate   =    -933.38238738 Ry
     estimated scf accuracy    <      93.58524401 Ry

     iteration #  3     ecut=    55.00 Ry     beta= 0.70
     Davidson diagonalization with overlap
     ethr =  1.42E-03,  avg # of iterations =  5.8

     total cpu time spent up to now is       72.8 secs

     total energy              =    -925.78423874 Ry
     Harris-Foulkes estimate   =    -925.94919775 Ry
     estimated scf accuracy    <       0.72168164 Ry

     iteration #  4     ecut=    55.00 Ry     beta= 0.70
     Davidson diagonalization with overlap
     ethr =  6.44E-04,  avg # of iterations =  4.0

     total cpu time spent up to now is       73.4 secs

     total energy              =    -925.79827314 Ry
     Harris-Foulkes estimate   =    -925.83136538 Ry
     estimated scf accuracy    <       0.37449405 Ry

     iteration #  5     ecut=    55.00 Ry     beta= 0.70
     Davidson diagonalization with overlap
     ethr =  3.34E-04,  avg # of iterations =  1.0

     total cpu time spent up to now is       73.8 secs

     total energy              =    -925.77883002 Ry
     Harris-Foulkes estimate   =    -925.80689769 Ry
     estimated scf accuracy    <       0.27453055 Ry

     iteration #  6     ecut=    55.00 Ry     beta= 0.70
     Davidson diagonalization with overlap
     ethr =  2.45E-04,  avg # of iterations =  1.0

     total cpu time spent up to now is       74.2 secs

     total energy              =    -925.76570903 Ry
     Harris-Foulkes estimate   =    -925.78603340 Ry
     estimated scf accuracy    <       0.17370395 Ry

     iteration #  7     ecut=    55.00 Ry     beta= 0.70
     Davidson diagonalization with overlap
     ethr =  1.55E-04,  avg # of iterations =  4.0

     total cpu time spent up to now is       74.9 secs

     total energy              =    -925.79520565 Ry
     Harris-Foulkes estimate   =    -925.79671272 Ry
     estimated scf accuracy    <       0.01510462 Ry

     iteration #  8     ecut=    55.00 Ry     beta= 0.70
     Davidson diagonalization with overlap
     ethr =  1.35E-05,  avg # of iterations =  4.2

     total cpu time spent up to now is       75.6 secs

     total energy              =    -925.80112917 Ry
     Harris-Foulkes estimate   =    -925.80044681 Ry
     estimated scf accuracy    <       0.01306519 Ry

     iteration #  9     ecut=    55.00 Ry     beta= 0.70
     Davidson diagonalization with overlap
     ethr =  1.17E-05,  avg # of iterations =  2.0

     total cpu time spent up to now is       76.1 secs

     total energy              =    -925.80071050 Ry
     Harris-Foulkes estimate   =    -925.80132154 Ry
     estimated scf accuracy    <       0.01531626 Ry

     iteration # 10     ecut=    55.00 Ry     beta= 0.70
     Davidson diagonalization with overlap
     ethr =  1.17E-05,  avg # of iterations =  1.0

     total cpu time spent up to now is       76.5 secs

     total energy              =    -925.80552387 Ry
     Harris-Foulkes estimate   =    -925.80075667 Ry
     estimated scf accuracy    <       0.01438805 Ry

     iteration # 11     ecut=    55.00 Ry     beta= 0.70
     Davidson diagonalization with overlap
     ethr =  1.17E-05,  avg # of iterations =  4.0

     total cpu time spent up to now is       77.4 secs

     total energy              =    -925.76654563 Ry
     Harris-Foulkes estimate   =    -925.81206027 Ry
     estimated scf accuracy    <       0.10754076 Ry

     iteration # 12     ecut=    55.00 Ry     beta= 0.70
     Davidson diagonalization with overlap
     ethr =  1.17E-05,  avg # of iterations =  5.0

     total cpu time spent up to now is       78.5 secs

     total energy              =    -925.80304733 Ry
     Harris-Foulkes estimate   =    -925.81031707 Ry
     estimated scf accuracy    <       0.09954429 Ry

     iteration # 13     ecut=    55.00 Ry     beta= 0.70
     Davidson diagonalization with overlap
     ethr =  1.17E-05,  avg # of iterations =  1.0

     total cpu time spent up to now is       78.9 secs

     total energy              =    -925.79886833 Ry
     Harris-Foulkes estimate   =    -925.80341616 Ry
     estimated scf accuracy    <       0.07690480 Ry

     iteration # 14     ecut=    55.00 Ry     beta= 0.70
     Davidson diagonalization with overlap
     ethr =  1.17E-05,  avg # of iterations =  3.8

     total cpu time spent up to now is       79.5 secs

     total energy              =    -925.79723016 Ry
     Harris-Foulkes estimate   =    -925.80031852 Ry
     estimated scf accuracy    <       0.03574399 Ry

     iteration # 15     ecut=    55.00 Ry     beta= 0.70
     Davidson diagonalization with overlap
     ethr =  1.17E-05,  avg # of iterations =  3.2

     total cpu time spent up to now is       80.1 secs

     total energy              =    -925.79810491 Ry
     Harris-Foulkes estimate   =    -925.79809484 Ry
     estimated scf accuracy    <       0.01978869 Ry

     iteration # 16     ecut=    55.00 Ry     beta= 0.70
     Davidson diagonalization with overlap
     ethr =  1.17E-05,  avg # of iterations =  1.0

     total cpu time spent up to now is       80.5 secs

     total energy              =    -925.79825274 Ry
     Harris-Foulkes estimate   =    -925.79826838 Ry
     estimated scf accuracy    <       0.01869099 Ry

     iteration # 17     ecut=    55.00 Ry     beta= 0.70
     Davidson diagonalization with overlap
     ethr =  1.17E-05,  avg # of iterations =  1.0

     total cpu time spent up to now is       80.9 secs

     total energy              =    -925.79868481 Ry
     Harris-Foulkes estimate   =    -925.79838752 Ry
     estimated scf accuracy    <       0.01715800 Ry

     iteration # 18     ecut=    55.00 Ry     beta= 0.70
     Davidson diagonalization with overlap
     ethr =  1.17E-05,  avg # of iterations =  1.0

     total cpu time spent up to now is       81.3 secs

     total energy              =    -925.79312811 Ry
     Harris-Foulkes estimate   =    -925.79876760 Ry
     estimated scf accuracy    <       0.01704244 Ry

     iteration # 19     ecut=    55.00 Ry     beta= 0.70
     Davidson diagonalization with overlap
     ethr =  1.17E-05,  avg # of iterations =  4.5

     total cpu time spent up to now is       82.2 secs

     total energy              =    -925.79787500 Ry
     Harris-Foulkes estimate   =    -925.79901663 Ry
     estimated scf accuracy    <       0.01055364 Ry

     iteration # 20     ecut=    55.00 Ry     beta= 0.70
     Davidson diagonalization with overlap
     ethr =  9.42E-06,  avg # of iterations =  1.0

     total cpu time spent up to now is       82.7 secs

     total energy              =    -925.79631241 Ry
     Harris-Foulkes estimate   =    -925.79796130 Ry
     estimated scf accuracy    <       0.00757034 Ry

     iteration # 21     ecut=    55.00 Ry     beta= 0.70
     Davidson diagonalization with overlap
     ethr =  6.76E-06,  avg # of iterations =  4.0

     total cpu time spent up to now is       83.4 secs

     total energy              =    -925.79743134 Ry
     Harris-Foulkes estimate   =    -925.79751431 Ry
     estimated scf accuracy    <       0.00016195 Ry

     iteration # 22     ecut=    55.00 Ry     beta= 0.70
     Davidson diagonalization with overlap
     ethr =  1.45E-07,  avg # of iterations =  5.0

     total cpu time spent up to now is       84.5 secs

     total energy              =    -925.79746949 Ry
     Harris-Foulkes estimate   =    -925.79760058 Ry
     estimated scf accuracy    <       0.00030487 Ry

     iteration # 23     ecut=    55.00 Ry     beta= 0.70
     Davidson diagonalization with overlap
     ethr =  1.45E-07,  avg # of iterations =  5.0

     total cpu time spent up to now is       85.6 secs

     total energy              =    -925.79754502 Ry
     Harris-Foulkes estimate   =    -925.79758042 Ry
     estimated scf accuracy    <       0.00020420 Ry

     iteration # 24     ecut=    55.00 Ry     beta= 0.70
     Davidson diagonalization with overlap
     ethr =  1.45E-07,  avg # of iterations =  1.0

     total cpu time spent up to now is       86.0 secs

     total energy              =    -925.79753685 Ry
     Harris-Foulkes estimate   =    -925.79754953 Ry
     estimated scf accuracy    <       0.00009330 Ry

     iteration # 25     ecut=    55.00 Ry     beta= 0.70
     Davidson diagonalization with overlap
     ethr =  8.33E-08,  avg # of iterations =  4.0

     total cpu time spent up to now is       86.7 secs

     total energy              =    -925.79754519 Ry
     Harris-Foulkes estimate   =    -925.79754808 Ry
     estimated scf accuracy    <       0.00000800 Ry

     iteration # 26     ecut=    55.00 Ry     beta= 0.70
     Davidson diagonalization with overlap
     ethr =  7.14E-09,  avg # of iterations =  5.0

     total cpu time spent up to now is       87.7 secs

     total energy              =    -925.79755306 Ry
     Harris-Foulkes estimate   =    -925.79755742 Ry
     estimated scf accuracy    <       0.00002837 Ry

     iteration # 27     ecut=    55.00 Ry     beta= 0.70
     Davidson diagonalization with overlap
     ethr =  7.14E-09,  avg # of iterations =  4.0

     total cpu time spent up to now is       88.4 secs

     total energy              =    -925.79755276 Ry
     Harris-Foulkes estimate   =    -925.79755411 Ry
     estimated scf accuracy    <       0.00000574 Ry

     iteration # 28     ecut=    55.00 Ry     beta= 0.70
     Davidson diagonalization with overlap
     ethr =  5.12E-09,  avg # of iterations =  4.0

     total cpu time spent up to now is       89.0 secs

     total energy              =    -925.79755348 Ry
     Harris-Foulkes estimate   =    -925.79755351 Ry
     estimated scf accuracy    <       0.00000046 Ry

     iteration # 29     ecut=    55.00 Ry     beta= 0.70
     Davidson diagonalization with overlap
     ethr =  4.14E-10,  avg # of iterations =  4.8

     total cpu time spent up to now is       89.9 secs

     total energy              =    -925.79755373 Ry
     Harris-Foulkes estimate   =    -925.79755380 Ry
     estimated scf accuracy    <       0.00000020 Ry

     iteration # 30     ecut=    55.00 Ry     beta= 0.70
     Davidson diagonalization with overlap
     ethr =  1.78E-10,  avg # of iterations =  4.0

     total cpu time spent up to now is       90.6 secs

     total energy              =    -925.79755376 Ry
     Harris-Foulkes estimate   =    -925.79755376 Ry
     estimated scf accuracy    <          5.7E-09 Ry

     iteration # 31     ecut=    55.00 Ry     beta= 0.70
     Davidson diagonalization with overlap
     ethr =  5.07E-12,  avg # of iterations =  5.0

     total cpu time spent up to now is       91.6 secs

     total energy              =    -925.79755377 Ry
     Harris-Foulkes estimate   =    -925.79755377 Ry
     estimated scf accuracy    <          1.8E-09 Ry

     iteration # 32     ecut=    55.00 Ry     beta= 0.70
     Davidson diagonalization with overlap
     ethr =  1.65E-12,  avg # of iterations =  4.5

     total cpu time spent up to now is       92.5 secs

     total energy              =    -925.79755377 Ry
     Harris-Foulkes estimate   =    -925.79755377 Ry
     estimated scf accuracy    <       0.00000001 Ry

     iteration # 33     ecut=    55.00 Ry     beta= 0.70
     Davidson diagonalization with overlap
     ethr =  1.65E-12,  avg # of iterations =  1.0

     total cpu time spent up to now is       92.9 secs

     total energy              =    -925.79755377 Ry
     Harris-Foulkes estimate   =    -925.79755377 Ry
     estimated scf accuracy    <       0.00000001 Ry

     iteration # 34     ecut=    55.00 Ry     beta= 0.70
     Davidson diagonalization with overlap
     ethr =  1.65E-12,  avg # of iterations =  4.5

     total cpu time spent up to now is       93.9 secs

     End of self-consistent calculation

          k = 0.0000 0.0000 0.0000 (  9047 PWs)   bands (ev):

   -59.9419 -59.9404 -59.9288 -59.9251 -33.9588 -33.9491 -33.9305 -33.9235
   -33.8981 -33.8469 -33.8172 -33.8159 -33.8145 -33.7722 -33.7694 -33.7613
   -13.6115 -13.4940 -12.4758 -12.4406 -12.1957 -12.0671 -11.6209 -11.6183
   -11.4548 -11.4446  -0.3945  -0.3818  -0.2841  -0.2586   0.0941   0.4842
     1.0208   1.3361   1.3410   1.5656   1.6727   1.7271   2.0842   2.1207
     2.1633   2.2820   2.3297   2.4243   2.4313   2.6477   2.6494   2.6811
     2.7089   3.0299   3.1350   3.3301   3.3639   3.3828   3.4639   3.6609

          k = 0.0000 0.2664 0.0000 (  9075 PWs)   bands (ev):

   -59.9419 -59.9415 -59.9303 -59.9271 -33.9601 -33.9507 -33.9335 -33.9264
   -33.8980 -33.8467 -33.8171 -33.8160 -33.8144 -33.7722 -33.7695 -33.7613
   -13.5539 -13.4461 -12.4431 -12.4220 -12.1645 -12.0415 -11.6346 -11.5964
   -11.4355 -11.3945  -0.4362  -0.4223  -0.3139  -0.2924  -0.0949   0.1318
     0.4410   0.6160   0.7061   0.8962   1.4267   1.4350   1.5130   2.0674
     2.1319   2.2909   2.4360   2.4573   2.6333   2.8844   2.9884   3.1027
     3.1514   3.2608   3.3049   3.3228   3.3322   3.7010   3.7349   3.9159

          k = 0.3413 0.0000 0.0000 (  9104 PWs)   bands (ev):

   -59.9381 -59.9360 -59.9317 -59.9291 -33.9513 -33.9441 -33.9280 -33.9247
   -33.9019 -33.8961 -33.8762 -33.8686 -33.8085 -33.8048 -33.7853 -33.7638
   -12.9949 -12.8698 -12.3095 -12.2628 -12.1443 -12.0239 -11.5515 -11.5483
   -11.4938 -11.4682  -0.9397  -0.8574  -0.1011   0.0242   0.2112   0.3843
     0.4397   0.8957   0.9172   1.2699   1.3570   1.5160   1.8480   1.9370
     1.9993   2.1511   2.1780   2.2307   2.3580   2.3802   2.5118   2.5369
     2.6538   2.8238   3.2171   3.3622   3.4034   3.5835   3.7147   3.8073

          k = 0.3413 0.2664 0.0000 (  9110 PWs)   bands (ev):

   -59.9392 -59.9353 -59.9322 -59.9292 -33.9527 -33.9457 -33.9306 -33.9271
   -33.9021 -33.8959 -33.8761 -33.8685 -33.8085 -33.8048 -33.7854 -33.7639
   -12.9474 -12.8357 -12.3016 -12.2598 -12.0939 -11.9991 -11.5460 -11.5103
   -11.4468 -11.4121  -0.9400  -0.8575  -0.1615  -0.0491   0.0761   0.2528
     0.3351   0.3914   0.5822   0.8462   0.9515   1.0318   1.4664   1.5687
     1.6065   1.6783   1.8397   1.9582   2.0850   2.4968   2.7655   3.0069
     3.1641   3.2078   3.5385   3.7041   3.7827   3.9017   3.9659   3.9953

     highest occupied level (ev):     3.9953

!    total energy              =    -925.79755377 Ry
     Harris-Foulkes estimate   =    -925.79755377 Ry
     estimated scf accuracy    <          3.6E-11 Ry

     The total energy is the sum of the following terms:

     one-electron contribution =    -585.14754901 Ry
     hartree contribution      =     333.62400698 Ry
     xc contribution           =    -178.53709806 Ry
     ewald contribution        =    -495.73691367 Ry

     convergence has been achieved in  34 iterations

     Forces acting on atoms (cartesian axes, Ry/au):

     atom    1 type  1   force =    -0.00000000   -0.02451972   -0.01106870
     atom    2 type  1   force =     0.00000000    0.02451972    0.01106870
     atom    3 type  1   force =     0.00000000    0.02451972   -0.01106870
     atom    4 type  1   force =     0.00000000   -0.02451972    0.01106870
     atom    5 type  2   force =    -0.00000000    0.01070674   -0.00213087
     atom    6 type  2   force =     0.00000000   -0.01070674    0.00213087
     atom    7 type  2   force =     0.00000000   -0.01070674   -0.00213087
     atom    8 type  2   force =    -0.00000000    0.01070674    0.00213087
     atom    9 type  2   force =     0.00000000   -0.00476080   -0.00075721
     atom   10 type  2   force =     0.00000000    0.00476080    0.00075721
     atom   11 type  2   force =     0.00000000    0.00476080   -0.00075721
     atom   12 type  2   force =    -0.00000000   -0.01181657    0.00000000
     atom   13 type  2   force =     0.00000000    0.01181657    0.00000000
     atom   14 type  2   force =     0.00000000   -0.00476080    0.00075721

     Total force =     0.061187     Total SCF correction =     0.000014


     Computing stress (Cartesian axis) and pressure

          total   stress  (Ry/bohr**3)                   (kbar)     P=  -63.47
  -0.00021221   0.00000000   0.00000000        -31.22      0.00      0.00
   0.00000000  -0.00071541   0.00000000          0.00   -105.24      0.00
   0.00000000   0.00000000  -0.00036666          0.00      0.00    -53.94


     number of scf cycles    =   4
     number of bfgs steps    =   3

     enthalpy old            =    -925.7634804481 Ry
     enthalpy new            =    -925.7975537665 Ry

     CASE: enthalpy_new < enthalpy_old

     new trust radius        =       0.1203142786 bohr
     new conv_thr            =            2.5E-11 Ry

     new unit-cell volume =   1173.71221 a.u.^3 (   173.92620 Ang^3 )
     density =      3.47295 g/cm^3

CELL_PARAMETERS (alat=  6.76758343)
   0.976057990   0.000000000   0.000000000
   0.000000000   1.229359843   0.000000000
   0.000000000   0.000000000   3.155775679

ATOMIC_POSITIONS (crystal)
V        0.000000000   0.388760600   0.648600798
V        0.500000013   0.611239424   0.851399239
V        0.500000013   0.611239424   0.148600786
V        0.000000000   0.388760600   0.351399227
O        0.500000013   0.499391128   0.679984254
O        0.000000000   0.500608897   0.820015785
O        0.000000000   0.500608897   0.179984240
O        0.500000013   0.499391128   0.320015772
O        0.000000000   0.031051510   0.356898107
O        0.500000013   0.968948515   0.143101906
O        0.500000013   0.968948515   0.856898119
O        0.500000013   0.489346701  -0.000000000
O        0.000000000   0.510653323   0.500000013
O        0.000000000   0.031051510   0.643101918



     Writing output data file v2o5.save/
     NEW-OLD atomic charge density approx. for the potential

     Check: negative core charge=   -0.000046
     extrapolated charge  109.44215, renormalised to  112.00000

     total cpu time spent up to now is       95.3 secs

     Self-consistent Calculation

     iteration #  1     ecut=    55.00 Ry     beta= 0.70
     Davidson diagonalization with overlap
     ethr =  1.00E-06,  avg # of iterations = 13.8

     total cpu time spent up to now is       97.8 secs

     total energy              =    -922.43984459 Ry
     Harris-Foulkes estimate   =    -936.80033969 Ry
     estimated scf accuracy    <       3.44062837 Ry

     iteration #  2     ecut=    55.00 Ry     beta= 0.70
     Davidson diagonalization with overlap
     ethr =  3.07E-03,  avg # of iterations =  4.0

     total cpu time spent up to now is       98.9 secs

     total energy              =    -925.29790217 Ry
     Harris-Foulkes estimate   =    -932.28032965 Ry
     estimated scf accuracy    <      20.87162582 Ry

     iteration #  3     ecut=    55.00 Ry     beta= 0.70
     Davidson diagonalization with overlap
     ethr =  3.07E-03,  avg # of iterations =  4.0

     total cpu time spent up to now is       99.8 secs

     total energy              =    -925.88191634 Ry
     Harris-Foulkes estimate   =    -926.55891781 Ry
     estimated scf accuracy    <       3.74102231 Ry

     iteration #  4     ecut=    55.00 Ry     beta= 0.70
     Davidson diagonalization with overlap
     ethr =  3.07E-03,  avg # of iterations =  1.0

     total cpu time spent up to now is      100.3 secs

     total energy              =    -925.67632133 Ry
     Harris-Foulkes estimate   =    -925.93727166 Ry
     estimated scf accuracy    <       2.29004759 Ry

     iteration #  5     ecut=    55.00 Ry     beta= 0.70
     Davidson diagonalization with overlap
     ethr =  2.04E-03,  avg # of iterations =  1.0

[...]
     estimated scf accuracy    <       0.96159858 Ry

     iteration #  5     ecut=    55.00 Ry     beta= 0.70
     Davidson diagonalization with overlap
     ethr =  8.59E-04,  avg # of iterations =  4.0

     total cpu time spent up to now is      425.6 secs

     total energy              =    -925.44845566 Ry
     Harris-Foulkes estimate   =    -925.60022097 Ry
     estimated scf accuracy    <       0.52915385 Ry

     iteration #  6     ecut=    55.00 Ry     beta= 0.70
     Davidson diagonalization with overlap
     ethr =  4.72E-04,  avg # of iterations =  4.2

     total cpu time spent up to now is      426.4 secs

     total energy              =    -925.61831595 Ry
     Harris-Foulkes estimate   =    -925.63266394 Ry
     estimated scf accuracy    <       0.21570880 Ry

     iteration #  7     ecut=    55.00 Ry     beta= 0.70
     Davidson diagonalization with overlap
     ethr =  1.93E-04,  avg # of iterations =  1.8

     total cpu time spent up to now is      426.8 secs

     total energy              =    -925.58539485 Ry
     Harris-Foulkes estimate   =    -925.62123984 Ry
     estimated scf accuracy    <       0.18186031 Ry

     iteration #  8     ecut=    55.00 Ry     beta= 0.70
     Davidson diagonalization with overlap
     ethr =  1.62E-04,  avg # of iterations =  3.0

     total cpu time spent up to now is      427.3 secs

     total energy              =    -925.59661276 Ry
     Harris-Foulkes estimate   =    -925.60056446 Ry
     estimated scf accuracy    <       0.01665114 Ry

     iteration #  9     ecut=    55.00 Ry     beta= 0.70
     Davidson diagonalization with overlap
     ethr =  1.49E-05,  avg # of iterations =  5.0

     total cpu time spent up to now is      428.2 secs

     total energy              =    -925.60554344 Ry
     Harris-Foulkes estimate   =    -925.60862425 Ry
     estimated scf accuracy    <       0.01470539 Ry

     iteration # 10     ecut=    55.00 Ry     beta= 0.70
     Davidson diagonalization with overlap
     ethr =  1.31E-05,  avg # of iterations =  1.0

     total cpu time spent up to now is      428.6 secs

     total energy              =    -925.60509923 Ry
     Harris-Foulkes estimate   =    -925.60600766 Ry
     estimated scf accuracy    <       0.00640388 Ry

     iteration # 11     ecut=    55.00 Ry     beta= 0.70
     Davidson diagonalization with overlap
     ethr =  5.72E-06,  avg # of iterations =  4.0

     total cpu time spent up to now is      429.3 secs

     total energy              =    -925.60655510 Ry
     Harris-Foulkes estimate   =    -925.60675094 Ry
     estimated scf accuracy    <       0.00108969 Ry

     iteration # 12     ecut=    55.00 Ry     beta= 0.70
     Davidson diagonalization with overlap
     ethr =  9.73E-07,  avg # of iterations =  2.8

     total cpu time spent up to now is      429.8 secs

     total energy              =    -925.60634963 Ry
     Harris-Foulkes estimate   =    -925.60659232 Ry
     estimated scf accuracy    <       0.00060751 Ry

     iteration # 13     ecut=    55.00 Ry     beta= 0.70
     Davidson diagonalization with overlap
     ethr =  5.42E-07,  avg # of iterations =  4.5

     total cpu time spent up to now is      430.6 secs

     total energy              =    -925.60657281 Ry
     Harris-Foulkes estimate   =    -925.60667898 Ry
     estimated scf accuracy    <       0.00063298 Ry

     iteration # 14     ecut=    55.00 Ry     beta= 0.70
     Davidson diagonalization with overlap
     ethr =  5.42E-07,  avg # of iterations =  1.0

     total cpu time spent up to now is      431.0 secs

     total energy              =    -925.60648424 Ry
     Harris-Foulkes estimate   =    -925.60658473 Ry
     estimated scf accuracy    <       0.00032608 Ry

     iteration # 15     ecut=    55.00 Ry     beta= 0.70
     Davidson diagonalization with overlap
     ethr =  2.91E-07,  avg # of iterations =  4.2

     total cpu time spent up to now is      431.8 secs

     total energy              =    -925.60658035 Ry
     Harris-Foulkes estimate   =    -925.60661894 Ry
     estimated scf accuracy    <       0.00019344 Ry

     iteration # 16     ecut=    55.00 Ry     beta= 0.70
     Davidson diagonalization with overlap
     ethr =  1.73E-07,  avg # of iterations =  1.8

     total cpu time spent up to now is      432.2 secs

     total energy              =    -925.60656904 Ry
     Harris-Foulkes estimate   =    -925.60658620 Ry
     estimated scf accuracy    <       0.00008102 Ry

     iteration # 17     ecut=    55.00 Ry     beta= 0.70
     Davidson diagonalization with overlap
     ethr =  7.23E-08,  avg # of iterations =  4.0

     total cpu time spent up to now is      432.9 secs

     total energy              =    -925.60659282 Ry
     Harris-Foulkes estimate   =    -925.60659535 Ry
     estimated scf accuracy    <       0.00001873 Ry

     iteration # 18     ecut=    55.00 Ry     beta= 0.70
     Davidson diagonalization with overlap
     ethr =  1.67E-08,  avg # of iterations =  2.0

     total cpu time spent up to now is      433.3 secs

     total energy              =    -925.60659200 Ry
     Harris-Foulkes estimate   =    -925.60659316 Ry
     estimated scf accuracy    <       0.00001210 Ry

     iteration # 19     ecut=    55.00 Ry     beta= 0.70
     Davidson diagonalization with overlap
     ethr =  1.08E-08,  avg # of iterations =  1.5

     total cpu time spent up to now is      433.7 secs

     total energy              =    -925.60659146 Ry
     Harris-Foulkes estimate   =    -925.60659231 Ry
     estimated scf accuracy    <       0.00000717 Ry

     iteration # 20     ecut=    55.00 Ry     beta= 0.70
     Davidson diagonalization with overlap
     ethr =  6.41E-09,  avg # of iterations =  4.2

     total cpu time spent up to now is      434.3 secs

     total energy              =    -925.60659280 Ry
     Harris-Foulkes estimate   =    -925.60659281 Ry
     estimated scf accuracy    <       0.00000007 Ry

     iteration # 21     ecut=    55.00 Ry     beta= 0.70
     Davidson diagonalization with overlap
     ethr =  5.86E-11,  avg # of iterations =  5.5

     total cpu time spent up to now is      435.4 secs

     total energy              =    -925.60659291 Ry
     Harris-Foulkes estimate   =    -925.60659291 Ry
     estimated scf accuracy    <       0.00000005 Ry

     iteration # 22     ecut=    55.00 Ry     beta= 0.70
     Davidson diagonalization with overlap
     ethr =  4.91E-11,  avg # of iterations =  1.0

     total cpu time spent up to now is      435.8 secs

     total energy              =    -925.60659292 Ry
     Harris-Foulkes estimate   =    -925.60659291 Ry
     estimated scf accuracy    <       0.00000006 Ry

     iteration # 23     ecut=    55.00 Ry     beta= 0.70
     Davidson diagonalization with overlap
     ethr =  4.91E-11,  avg # of iterations =  3.5

     total cpu time spent up to now is      436.3 secs

     total energy              =    -925.60659292 Ry
     Harris-Foulkes estimate   =    -925.60659293 Ry
     estimated scf accuracy    <       0.00000014 Ry

     iteration # 24     ecut=    55.00 Ry     beta= 0.70
     Davidson diagonalization with overlap
     ethr =  4.91E-11,  avg # of iterations =  1.0

     total cpu time spent up to now is      436.7 secs

     total energy              =    -925.60659291 Ry
     Harris-Foulkes estimate   =    -925.60659292 Ry
     estimated scf accuracy    <       0.00000013 Ry

     iteration # 25     ecut=    55.00 Ry     beta= 0.70
     Davidson diagonalization with overlap
     ethr =  4.91E-11,  avg # of iterations =  1.0

     total cpu time spent up to now is      437.1 secs

     total energy              =    -925.60659292 Ry
     Harris-Foulkes estimate   =    -925.60659291 Ry
     estimated scf accuracy    <       0.00000010 Ry

     iteration # 26     ecut=    55.00 Ry     beta= 0.70
     Davidson diagonalization with overlap
     ethr =  4.91E-11,  avg # of iterations =  1.0

     total cpu time spent up to now is      437.5 secs

     total energy              =    -925.60659291 Ry
     Harris-Foulkes estimate   =    -925.60659292 Ry
     estimated scf accuracy    <       0.00000011 Ry

     iteration # 27     ecut=    55.00 Ry     beta= 0.70
     Davidson diagonalization with overlap
     ethr =  4.91E-11,  avg # of iterations =  1.0

     total cpu time spent up to now is      437.8 secs

     total energy              =    -925.60659289 Ry
     Harris-Foulkes estimate   =    -925.60659291 Ry
     estimated scf accuracy    <       0.00000008 Ry

     iteration # 28     ecut=    55.00 Ry     beta= 0.70
     Davidson diagonalization with overlap
     ethr =  4.91E-11,  avg # of iterations =  4.0

     total cpu time spent up to now is      438.5 secs

     total energy              =    -925.60659290 Ry
     Harris-Foulkes estimate   =    -925.60659290 Ry
     estimated scf accuracy    <          4.9E-09 Ry

     iteration # 29     ecut=    55.00 Ry     beta= 0.70
     Davidson diagonalization with overlap
     ethr =  4.35E-12,  avg # of iterations =  5.0

     total cpu time spent up to now is      439.5 secs

     total energy              =    -925.60659290 Ry
     Harris-Foulkes estimate   =    -925.60659291 Ry
     estimated scf accuracy    <       0.00000004 Ry

     iteration # 30     ecut=    55.00 Ry     beta= 0.70
     Davidson diagonalization with overlap
     ethr =  4.35E-12,  avg # of iterations =  5.0

     total cpu time spent up to now is      440.5 secs

     total energy              =    -925.60659290 Ry
     Harris-Foulkes estimate   =    -925.60659290 Ry
     estimated scf accuracy    <          3.5E-10 Ry

     iteration # 31     ecut=    55.00 Ry     beta= 0.70
     Davidson diagonalization with overlap
     ethr =  3.11E-13,  avg # of iterations =  5.0

     total cpu time spent up to now is      441.4 secs

     total energy              =    -925.60659290 Ry
     Harris-Foulkes estimate   =    -925.60659290 Ry
     estimated scf accuracy    <          1.3E-09 Ry

     iteration # 32     ecut=    55.00 Ry     beta= 0.70
     Davidson diagonalization with overlap
     ethr =  3.11E-13,  avg # of iterations =  1.0

     total cpu time spent up to now is      441.8 secs

     total energy              =    -925.60659290 Ry
     Harris-Foulkes estimate   =    -925.60659290 Ry
     estimated scf accuracy    <          1.3E-09 Ry

     iteration # 33     ecut=    55.00 Ry     beta= 0.70
     Davidson diagonalization with overlap
     ethr =  3.11E-13,  avg # of iterations =  1.0

     total cpu time spent up to now is      442.2 secs

     total energy              =    -925.60659290 Ry
     Harris-Foulkes estimate   =    -925.60659290 Ry
     estimated scf accuracy    <          1.3E-09 Ry

     iteration # 34     ecut=    55.00 Ry     beta= 0.70
     Davidson diagonalization with overlap
     ethr =  3.11E-13,  avg # of iterations =  3.0

     total cpu time spent up to now is      442.7 secs

     total energy              =    -925.60659290 Ry
     Harris-Foulkes estimate   =    -925.60659290 Ry
     estimated scf accuracy    <          6.6E-10 Ry

     iteration # 35     ecut=    55.00 Ry     beta= 0.70
     Davidson diagonalization with overlap
     ethr =  3.11E-13,  avg # of iterations =  3.5

     total cpu time spent up to now is      443.3 secs

     total energy              =    -925.60659290 Ry
     Harris-Foulkes estimate   =    -925.60659290 Ry
     estimated scf accuracy    <          1.4E-10 Ry

     iteration # 36     ecut=    55.00 Ry     beta= 0.70
     Davidson diagonalization with overlap
     ethr =  1.23E-13,  avg # of iterations =  2.2

     total cpu time spent up to now is      443.8 secs

     total energy              =    -925.60659290 Ry
     Harris-Foulkes estimate   =    -925.60659290 Ry
     estimated scf accuracy    <          1.4E-10 Ry

     iteration # 37     ecut=    55.00 Ry     beta= 0.70
     Davidson diagonalization with overlap
     ethr =  1.23E-13,  avg # of iterations =  2.5

     total cpu time spent up to now is      444.3 secs

     total energy              =    -925.60659290 Ry
     Harris-Foulkes estimate   =    -925.60659290 Ry
     estimated scf accuracy    <          6.6E-11 Ry

     iteration # 38     ecut=    55.00 Ry     beta= 0.70
     Davidson diagonalization with overlap
     ethr =  1.00E-13,  avg # of iterations =  3.5

     total cpu time spent up to now is      444.8 secs

     total energy              =    -925.60659290 Ry
     Harris-Foulkes estimate   =    -925.60659290 Ry
     estimated scf accuracy    <          1.3E-11 Ry

     iteration # 39     ecut=    55.00 Ry     beta= 0.70
     Davidson diagonalization with overlap
     ethr =  1.00E-13,  avg # of iterations =  2.0

     total cpu time spent up to now is      445.2 secs

     total energy              =    -925.60659290 Ry
     Harris-Foulkes estimate   =    -925.60659290 Ry
     estimated scf accuracy    <          3.1E-12 Ry

     iteration # 40     ecut=    55.00 Ry     beta= 0.70
     Davidson diagonalization with overlap
     ethr =  1.00E-13,  avg # of iterations =  2.5

     total cpu time spent up to now is      445.7 secs

     End of self-consistent calculation

          k = 0.0000 0.0000 0.0000 (  7771 PWs)   bands (ev):

   -59.2193 -59.2155 -59.2043 -59.1983 -33.2473 -33.2399 -33.2258 -33.2165
   -33.1976 -33.1411 -33.1131 -33.0958 -33.0928 -33.0577 -33.0539 -33.0510
   -12.8379 -12.6996 -11.7088 -11.6151 -11.4383 -11.3356 -10.9214 -10.9021
   -10.7575 -10.7174   0.4712   0.4796   0.5674   0.5912   0.8852   1.2360
     1.8273   2.1219   2.1510   2.4673   2.5408   2.5724   2.9148   3.0307
     3.0738   3.0811   3.1120   3.1765   3.2414   3.2529   3.3740   3.3816
     3.6743   3.9289   3.9356   4.1307   4.1486   4.1552   4.1855   4.4779

          k = 0.0000 0.2806 0.0000 (  7787 PWs)   bands (ev):

   -59.2195 -59.2138 -59.2063 -59.2031 -33.2508 -33.2436 -33.2321 -33.2228
   -33.1973 -33.1404 -33.1130 -33.0957 -33.0927 -33.0577 -33.0541 -33.0511
   -12.7257 -12.6043 -11.6206 -11.5732 -11.4145 -11.3041 -10.9266 -10.8929
   -10.6871 -10.6540   0.3787   0.3861   0.4754   0.5179   0.6475   0.7030
     1.0558   1.2377   1.2810   1.5453   2.0600   2.0628   2.1563   2.8366
     2.9118   3.0235   3.2229   3.2387   3.4511   3.7520   3.8549   3.9289
     4.0131   4.1969   4.1994   4.2354   4.2671   4.5249   4.7003   4.8380

          k = 0.3424 0.0000 0.0000 (  7786 PWs)   bands (ev):

   -59.2125 -59.2113 -59.2049 -59.2029 -33.2383 -33.2334 -33.2218 -33.2164
   -33.1988 -33.1810 -33.1575 -33.1568 -33.0964 -33.0944 -33.0745 -33.0579
   -12.2311 -12.0785 -11.5282 -11.4359 -11.4157 -11.2906 -10.8640 -10.8344
   -10.8314 -10.7577  -0.0345   0.0527   0.6767   0.8460   0.9934   1.2111
     1.3203   1.7380   1.7458   2.1728   2.2557   2.3402   2.8170   2.8272
     2.8499   2.9160   2.9799   2.9821   3.2036   3.2344   3.4679   3.4877
     3.5226   3.5826   3.8692   3.9826   4.1548   4.1581   4.4701   4.6994

          k = 0.3424 0.2806 0.0000 (  7765 PWs)   bands (ev):

   -59.2131 -59.2074 -59.2060 -59.2002 -33.2418 -33.2370 -33.2274 -33.2216
   -33.1986 -33.1804 -33.1569 -33.1562 -33.0963 -33.0944 -33.0745 -33.0580
   -12.1369 -12.0094 -11.4878 -11.4301 -11.3566 -11.2600 -10.8257 -10.7950
   -10.7088 -10.6855  -0.0544   0.0376   0.5681   0.7104   0.7857   0.9146
     1.0925   1.1619   1.2351   1.4435   1.5290   1.7877   2.1916   2.1999
     2.4553   2.4573   2.5896   2.7019   2.9278   3.3663   3.6518   3.8522
     4.0606   4.0959   4.4315   4.5476   4.6602   4.7699   4.8198   4.9171

     highest occupied level (ev):     4.9171

!    total energy              =    -925.60659290 Ry
     Harris-Foulkes estimate   =    -925.60659290 Ry
     estimated scf accuracy    <          1.4E-13 Ry

     The total energy is the sum of the following terms:

     one-electron contribution =    -537.88012481 Ry
     hartree contribution      =     313.17209357 Ry
     xc contribution           =    -178.56333011 Ry
     ewald contribution        =    -522.33523155 Ry

     convergence has been achieved in  40 iterations

     Forces acting on atoms (cartesian axes, Ry/au):

     atom    1 type  1   force =     0.00000000   -0.01092944   -0.00092989
     atom    2 type  1   force =     0.00000000    0.01092944    0.00092989
     atom    3 type  1   force =     0.00000000    0.01092944   -0.00092989
     atom    4 type  1   force =     0.00000000   -0.01092944    0.00092989
     atom    5 type  2   force =    -0.00000000    0.00102776    0.00138117
     atom    6 type  2   force =     0.00000000   -0.00102776   -0.00138117
     atom    7 type  2   force =     0.00000000   -0.00102776    0.00138117
     atom    8 type  2   force =     0.00000000    0.00102776   -0.00138117
     atom    9 type  2   force =     0.00000000    0.01087654    0.00228979
     atom   10 type  2   force =     0.00000000   -0.01087654   -0.00228979
     atom   11 type  2   force =     0.00000000   -0.01087654    0.00228979
     atom   12 type  2   force =     0.00000000    0.00049212    0.00000000
     atom   13 type  2   force =    -0.00000000   -0.00049212    0.00000000
     atom   14 type  2   force =     0.00000000    0.01087654   -0.00228979

     Total force =     0.031429     Total SCF correction =     0.000001


     Computing stress (Cartesian axis) and pressure

          total   stress  (Ry/bohr**3)                   (kbar)     P= -160.14
  -0.00088225   0.00000000   0.00000000       -129.78      0.00      0.00
   0.00000000  -0.00140273   0.00000000          0.00   -206.35      0.00
   0.00000000   0.00000000  -0.00098075          0.00      0.00   -144.27


     Writing output data file v2o5.save/

     init_run     :      0.88s CPU      0.89s WALL (       2 calls)
     electrons    :    404.95s CPU    412.05s WALL (      24 calls)
     update_pot   :      9.06s CPU      9.08s WALL (      22 calls)
     forces       :      8.57s CPU      8.66s WALL (      24 calls)
     stress       :     14.79s CPU     14.84s WALL (      24 calls)

     Called by init_run:
     wfcinit      :      0.39s CPU      0.40s WALL (       2 calls)
     potinit      :      0.18s CPU      0.18s WALL (       2 calls)
     hinit0       :      0.28s CPU      0.29s WALL (       2 calls)

     Called by electrons:
     c_bands      :    370.74s CPU    377.06s WALL (     587 calls)
     sum_band     :     16.68s CPU     17.06s WALL (     587 calls)
     v_of_rho     :     16.83s CPU     16.97s WALL (     607 calls)
     mix_rho      :      1.11s CPU      1.12s WALL (     587 calls)

     Called by c_bands:
     init_us_2    :      2.87s CPU      2.92s WALL (    4896 calls)
     cegterg      :    360.63s CPU    366.65s WALL (    2348 calls)

     Called by sum_band:

     Called by *egterg:
     h_psi        :    176.69s CPU    180.18s WALL (   10391 calls)
     g_psi        :      0.76s CPU      0.77s WALL (    8035 calls)
     cdiaghg      :     89.52s CPU     91.38s WALL (   10279 calls)

     Called by h_psi:
     h_psi:pot    :    176.09s CPU    179.58s WALL (   10391 calls)
     h_psi:calbec :     52.03s CPU     53.66s WALL (   10391 calls)
     vloc_psi     :     81.59s CPU     83.34s WALL (   10391 calls)
     add_vuspsi   :     42.42s CPU     42.53s WALL (   10391 calls)

     General routines
     calbec       :     55.68s CPU     57.41s WALL (   10871 calls)
     fft          :      8.64s CPU      8.70s WALL (   40478 calls)
     ffts         :      0.12s CPU      0.12s WALL (     587 calls)
     fftw         :     87.52s CPU     89.42s WALL (  859152 calls)

     Parallel routines
     fft_scatt_xy :      8.34s CPU      8.50s WALL (  900217 calls)
     fft_scatt_yz :     51.74s CPU     52.89s WALL (  900217 calls)

     PWSCF        :   7m19.10s CPU   7m26.62s WALL


   This run was terminated on:   0:56: 5  19May2024            

=------------------------------------------------------------------------------=
   JOB DONE.
=------------------------------------------------------------------------------=
