
     Program PWSCF v.6.4.1 starts on 18May2024 at 22:49:11 

     This program is part of the open-source Quantum ESPRESSO suite
     for quantum simulation of materials; please cite
         "P. Giannozzi et al., J. Phys.:Condens. Matter 21 395502 (2009);
         "P. Giannozzi et al., J. Phys.:Condens. Matter 29 465901 (2017);
          URL http://www.quantum-espresso.org", 
     in publications or presentations arising from this work. More details at
     http://www.quantum-espresso.org/quote

     Parallel version (MPI), running on    32 processors

     MPI processes distributed on     1 nodes
     R & G space division:  proc/nbgrp/npool/nimage =      32
     Reading input from v2o5.vc.in
Warning: card O       -0.000000000   0.048914545   0.643203052 ignored

     Current dimensions of program PWSCF are:
     Max number of different atomic species (ntypx) = 10
     Max number of k-points (npk) =  40000
     Max angular momentum in pseudopotentials (lmaxx) =  3

     IMPORTANT: XC functional enforced from input :
     Exchange-correlation      = VDW-DF ( 1  4  4  0 1 0)
     Any further DFT definition will be discarded
     Please, verify this is what you really want


     Subspace diagonalization in iterative solution of the eigenvalue problem:
     one sub-group per band group will be used
     ELPA distributed-memory algorithm (size of sub-group:  4*  4 procs)


     Parallelization info
     --------------------
     sticks:   dense  smooth     PW     G-vecs:    dense   smooth      PW
     Min          17      17      5                  909      909     137
     Max          18      18      6                  922      922     147
     Sum         569     569    169                29317    29317    4533



     bravais-lattice index     =            8
     lattice parameter (alat)  =       6.7676  a.u.
     unit-cell volume          =    1320.1235 (a.u.)^3
     number of atoms/cell      =           14
     number of atomic types    =            2
     number of electrons       =       112.00
     number of Kohn-Sham states=           56
     kinetic-energy cutoff     =      30.0000  Ry
     charge density cutoff     =     120.0000  Ry
     convergence threshold     =      1.0E-10
     mixing beta               =       0.7000
     number of iterations used =            8  plain     mixing
     Exchange-correlation      = VDW-DF ( 1  4  4  0 1 0)
     nstep                     =          500


     celldm(1)=   6.767583  celldm(2)=   1.308375  celldm(3)=   3.255230
     celldm(4)=   0.000000  celldm(5)=   0.000000  celldm(6)=   0.000000

     crystal axes: (cart. coord. in units of alat)
               a(1) = (   1.000000   0.000000   0.000000 )  
               a(2) = (   0.000000   1.308375   0.000000 )  
               a(3) = (   0.000000   0.000000   3.255230 )  

     reciprocal axes: (cart. coord. in units 2 pi/alat)
               b(1) = (  1.000000  0.000000  0.000000 )  
               b(2) = (  0.000000  0.764307  0.000000 )  
               b(3) = (  0.000000  0.000000  0.307198 )  


     PseudoPot. # 1 for V  read from file:
     /home/mpicuntureo/pseudos/v.nc.upf
     MD5 check sum: 40fb93c06b4f9d8c28c5ccd071294a04
     Pseudo is Norm-conserving + core correction, Zval = 13.0
     Generated using ONCVPSP code by D. R. Hamann
     Using radial grid of 1536 points,  6 beta functions with: 
                l(1) =   0
                l(2) =   0
                l(3) =   1
                l(4) =   1
                l(5) =   2
                l(6) =   2

     PseudoPot. # 2 for O  read from file:
     /home/mpicuntureo/pseudos/o.nc.upf
     MD5 check sum: 3e3f909f7470e8921608ab6b1f57bbae
     Pseudo is Norm-conserving + core correction, Zval =  6.0
     Generated using ONCVPSP code by D. R. Hamann
     Using radial grid of  936 points,  5 beta functions with: 
                l(1) =   0
                l(2) =   0
                l(3) =   1
                l(4) =   1
                l(5) =   2

     vdW kernel table read from file vdW_kernel_table
     MD5 check sum: 8c4337f4b28e1601c069d7ef7b6561bc

     atomic species   valence    mass     pseudopotential
        V             13.00    50.94150     V ( 1.00)
        O              6.00    15.99940     O ( 1.00)

      8 Sym. Ops., with inversion, found ( 4 have fractional translation)



   Cartesian axes

     site n.     atom                  positions (alat units)
         1           V   tau(   1) = (   0.0000000   0.5083212   2.1085108  )
         2           V   tau(   2) = (   0.5000000   0.8000533   2.7743339  )
         3           V   tau(   3) = (   0.5000000   0.8000533   0.4808959  )
         4           V   tau(   4) = (   0.0000000   0.5083212   1.1467190  )
         5           O   tau(   5) = (   0.5000000   0.6458297   2.2175314  )
         6           O   tau(   6) = (   0.0000000   0.6625449   2.6653133  )
         7           O   tau(   7) = (   0.0000000   0.6625449   0.5899165  )
         8           O   tau(   8) = (   0.5000000   0.6458297   1.0376984  )
         9           O   tau(   9) = (   0.0000000   0.0639985   1.1614561  )
        10           O   tau(  10) = (   0.5000000   1.2443760   0.4661588  )
        11           O   tau(  11) = (   0.5000000   1.2443760   2.7890710  )
        12           O   tau(  12) = (   0.5000000   0.6549630   0.0000000  )
        13           O   tau(  13) = (   0.0000000   0.6534115   1.6276149  )
        14           O   tau(  14) = (   0.0000000   0.0639985   2.0937737  )

     number of k points=     4
                       cart. coord. in units 2pi/alat
        k(    1) = (   0.0000000   0.0000000   0.0000000), wk =   0.2222222
        k(    2) = (   0.0000000   0.2547691   0.0000000), wk =   0.4444444
        k(    3) = (   0.3333333   0.0000000   0.0000000), wk =   0.4444444
        k(    4) = (   0.3333333   0.2547691   0.0000000), wk =   0.8888889

     Dense  grid:    29317 G-vectors     FFT dimensions: (  24,  32,  80)

     Estimated max dynamical RAM per process >       6.30 MB

     Estimated total dynamical RAM >     201.47 MB

     Check: negative core charge=   -0.001887

     Initial potential from superposition of free atoms

     starting charge  111.99579, renormalised to  112.00000

     negative rho (up, down):  2.134E-06 0.000E+00


     %%%%%%%%%%%%%%%%%%%%%%%%%%%%%%%%%%%%%%%%%%%%%%%%%%%%%%%%%%%%%%%%%%%%%%%%
     %                                                                      %
     % You are using vdW-DF, which was implemented by the Thonhauser group. %
     % Please cite the following two papers that made this development      %
     % possible and the two reviews that describe the various versions:     %
     %                                                                      %
     %   T. Thonhauser et al., PRL 115, 136402 (2015).                      %
     %   T. Thonhauser et al., PRB 76, 125112 (2007).                       %
     %   K. Berland et al., Rep. Prog. Phys. 78, 066501 (2015).             %
     %   D.C. Langreth et al., J. Phys.: Condens. Matter 21, 084203 (2009). %
     %                                                                      %
     %                                                                      %
     % If you are calculating the stress with vdW-DF, please also cite:     %
     %                                                                      %
     %   R. Sabatini et al., J. Phys.: Condens. Matter 24, 424209 (2012).   %
     %                                                                      %
     %%%%%%%%%%%%%%%%%%%%%%%%%%%%%%%%%%%%%%%%%%%%%%%%%%%%%%%%%%%%%%%%%%%%%%%%


     Starting wfcs are   80 randomized atomic wfcs

     total cpu time spent up to now is        0.7 secs

     Self-consistent Calculation

     iteration #  1     ecut=    30.00 Ry     beta= 0.70
     Davidson diagonalization with overlap
     ethr =  1.00E-02,  avg # of iterations =  2.0

     total cpu time spent up to now is        1.0 secs

     total energy              =    -912.11652458 Ry
     Harris-Foulkes estimate   =    -918.40610977 Ry
     estimated scf accuracy    <       8.01513346 Ry

     iteration #  2     ecut=    30.00 Ry     beta= 0.70
     Davidson diagonalization with overlap
     ethr =  7.16E-03,  avg # of iterations =  5.8

     total cpu time spent up to now is        1.7 secs

     total energy              =    -902.78515839 Ry
     Harris-Foulkes estimate   =    -925.55437097 Ry
     estimated scf accuracy    <      85.31500718 Ry

     iteration #  3     ecut=    30.00 Ry     beta= 0.70
     Davidson diagonalization with overlap
     ethr =  7.16E-03,  avg # of iterations =  4.5

     total cpu time spent up to now is        2.4 secs

     total energy              =    -916.08202840 Ry
     Harris-Foulkes estimate   =    -916.80621010 Ry
     estimated scf accuracy    <       3.03564979 Ry

     iteration #  4     ecut=    30.00 Ry     beta= 0.70
     Davidson diagonalization with overlap
     ethr =  2.71E-03,  avg # of iterations =  2.2

     total cpu time spent up to now is        2.7 secs

     total energy              =    -915.95482166 Ry
     Harris-Foulkes estimate   =    -916.29103208 Ry
     estimated scf accuracy    <       1.32434060 Ry

     iteration #  5     ecut=    30.00 Ry     beta= 0.70
     Davidson diagonalization with overlap
     ethr =  1.18E-03,  avg # of iterations =  3.0

     total cpu time spent up to now is        3.1 secs

     total energy              =    -916.07439314 Ry
     Harris-Foulkes estimate   =    -916.10673857 Ry
     estimated scf accuracy    <       0.14854707 Ry

     iteration #  6     ecut=    30.00 Ry     beta= 0.70
     Davidson diagonalization with overlap
     ethr =  1.33E-04,  avg # of iterations =  4.0

     total cpu time spent up to now is        3.5 secs

     total energy              =    -916.09740453 Ry
     Harris-Foulkes estimate   =    -916.10448253 Ry
     estimated scf accuracy    <       0.01764854 Ry

     iteration #  7     ecut=    30.00 Ry     beta= 0.70
     Davidson diagonalization with overlap
     ethr =  1.58E-05,  avg # of iterations =  4.0

     total cpu time spent up to now is        4.1 secs

     total energy              =    -916.10503775 Ry
     Harris-Foulkes estimate   =    -916.10728658 Ry
     estimated scf accuracy    <       0.01094293 Ry

     iteration #  8     ecut=    30.00 Ry     beta= 0.70
     Davidson diagonalization with overlap
     ethr =  9.77E-06,  avg # of iterations =  3.2

     total cpu time spent up to now is        4.4 secs

     total energy              =    -916.10462089 Ry
     Harris-Foulkes estimate   =    -916.10578757 Ry
     estimated scf accuracy    <       0.00506925 Ry

     iteration #  9     ecut=    30.00 Ry     beta= 0.70
     Davidson diagonalization with overlap
     ethr =  4.53E-06,  avg # of iterations =  3.2

     total cpu time spent up to now is        4.7 secs

     total energy              =    -916.10477356 Ry
     Harris-Foulkes estimate   =    -916.10514170 Ry
     estimated scf accuracy    <       0.00147408 Ry

     iteration # 10     ecut=    30.00 Ry     beta= 0.70
     Davidson diagonalization with overlap
     ethr =  1.32E-06,  avg # of iterations =  4.0

     total cpu time spent up to now is        5.2 secs

     total energy              =    -916.10505426 Ry
     Harris-Foulkes estimate   =    -916.10506552 Ry
     estimated scf accuracy    <       0.00003115 Ry

     iteration # 11     ecut=    30.00 Ry     beta= 0.70
     Davidson diagonalization with overlap
     ethr =  2.78E-08,  avg # of iterations =  4.2

     total cpu time spent up to now is        5.7 secs

     total energy              =    -916.10506355 Ry
     Harris-Foulkes estimate   =    -916.10506692 Ry
     estimated scf accuracy    <       0.00000945 Ry

     iteration # 12     ecut=    30.00 Ry     beta= 0.70
     Davidson diagonalization with overlap
     ethr =  8.44E-09,  avg # of iterations =  3.5

     total cpu time spent up to now is        6.1 secs

     total energy              =    -916.10506528 Ry
     Harris-Foulkes estimate   =    -916.10506537 Ry
     estimated scf accuracy    <       0.00000023 Ry

     iteration # 13     ecut=    30.00 Ry     beta= 0.70
     Davidson diagonalization with overlap
     ethr =  2.08E-10,  avg # of iterations =  4.8

     total cpu time spent up to now is        6.7 secs

     total energy              =    -916.10506535 Ry
     Harris-Foulkes estimate   =    -916.10506537 Ry
     estimated scf accuracy    <       0.00000006 Ry

     iteration # 14     ecut=    30.00 Ry     beta= 0.70
     Davidson diagonalization with overlap
     ethr =  5.15E-11,  avg # of iterations =  3.5

     total cpu time spent up to now is        7.1 secs

     total energy              =    -916.10506535 Ry
     Harris-Foulkes estimate   =    -916.10506536 Ry
     estimated scf accuracy    <          6.2E-09 Ry

     iteration # 15     ecut=    30.00 Ry     beta= 0.70
     Davidson diagonalization with overlap
     ethr =  5.50E-12,  avg # of iterations =  4.0

     total cpu time spent up to now is        7.6 secs

     total energy              =    -916.10506535 Ry
     Harris-Foulkes estimate   =    -916.10506535 Ry
     estimated scf accuracy    <          8.2E-10 Ry

     iteration # 16     ecut=    30.00 Ry     beta= 0.70
     Davidson diagonalization with overlap
     ethr =  7.33E-13,  avg # of iterations =  3.5

     total cpu time spent up to now is        7.9 secs

     End of self-consistent calculation

          k = 0.0000 0.0000 0.0000 (  3667 PWs)   bands (ev):

   -64.7495 -64.7358 -64.7206 -64.6705 -39.2958 -39.2566 -39.2559 -39.2497
   -39.1645 -39.1584 -39.1539 -39.1533 -39.1505 -39.1195 -39.1157 -39.1146
   -15.8379 -15.7661 -14.8476 -14.7986 -14.6138 -14.5564 -13.9397 -13.9305
   -13.8211 -13.7990  -1.4168  -1.3918  -1.1764  -1.1254  -0.7023  -0.4847
     0.1275   0.4568   0.5345   0.7260   0.9816   1.0122   1.4047   1.4159
     1.4588   1.4956   1.6944   1.7415   1.7583   1.9617   2.0109   2.0310
     2.0379   2.0754   2.3545   2.6383   2.6983   2.7333   2.8672   3.0460

          k = 0.0000 0.2548 0.0000 (  3646 PWs)   bands (ev):

   -64.7264 -64.7187 -64.6743 -64.6693 -39.2441 -39.2205 -39.1949 -39.1735
   -39.1731 -39.1713 -39.1648 -39.1515 -39.1217 -39.1137 -39.1021 -39.1007
   -15.8121 -15.7403 -14.8241 -14.7866 -14.5990 -14.5459 -13.9474 -13.9225
   -13.7968 -13.7589  -1.3940  -1.3835  -1.1636  -1.1277  -0.8052  -0.5864
    -0.4068  -0.2425  -0.0114   0.1992   0.7588   0.7933   0.8676   1.4229
     1.5008   1.5317   1.7074   1.7670   1.9035   2.2779   2.3133   2.3702
     2.4108   2.5625   2.5945   2.6236   2.6276   3.0785   3.0909   3.2963

          k = 0.3333 0.0000 0.0000 (  3672 PWs)   bands (ev):

   -64.7310 -64.7211 -64.7180 -64.7096 -39.2308 -39.2303 -39.2279 -39.2212
   -39.2150 -39.1908 -39.1861 -39.1854 -39.1428 -39.1351 -39.1270 -39.1249
   -15.3571 -15.2805 -14.7636 -14.7565 -14.6082 -14.5392 -13.8930 -13.8702
   -13.8290 -13.8202  -1.8995  -1.8257  -1.0036  -0.7199  -0.5907  -0.5836
    -0.3816   0.1609   0.1979   0.4953   0.5138   0.7807   1.0457   1.1425
     1.2894   1.4556   1.5330   1.5421   1.6537   1.6832   1.7208   1.8101
     1.9242   2.0046   2.5673   2.7637   2.8168   2.9554   3.0526   3.0614

          k = 0.3333 0.2548 0.0000 (  3663 PWs)   bands (ev):

   -64.7390 -64.7089 -64.7010 -64.6973 -39.2396 -39.2315 -39.2266 -39.1954
   -39.1866 -39.1848 -39.1648 -39.1630 -39.1470 -39.1346 -39.1250 -39.1169
   -15.3325 -15.2694 -14.7681 -14.7516 -14.5908 -14.5202 -13.8925 -13.8513
   -13.8097 -13.7779  -1.9179  -1.8347  -0.9737  -0.8236  -0.6778  -0.5987
    -0.4339  -0.3021  -0.1580   0.1890   0.2279   0.2437   0.6870   0.8309
     0.8922   1.0597   1.2502   1.2619   1.4094   1.8158   1.9538   2.3348
     2.3497   2.4501   2.8811   3.0790   3.0954   3.2187   3.2761   3.4021

     highest occupied level (ev):     3.4021

!    total energy              =    -916.10506535 Ry
     Harris-Foulkes estimate   =    -916.10506535 Ry
     estimated scf accuracy    <          6.8E-11 Ry

     The total energy is the sum of the following terms:

     one-electron contribution =    -597.22092648 Ry
     hartree contribution      =     327.26915170 Ry
     xc contribution           =    -175.07657975 Ry
     ewald contribution        =    -471.07671082 Ry

     convergence has been achieved in  16 iterations

     Forces acting on atoms (cartesian axes, Ry/au):

     atom    1 type  1   force =    -0.00000000   -0.05877838    0.01392811
     atom    2 type  1   force =     0.00000000    0.05877838   -0.01392811
     atom    3 type  1   force =     0.00000000    0.05877838    0.01392811
     atom    4 type  1   force =    -0.00000000   -0.05877838   -0.01392811
     atom    5 type  2   force =     0.00000000    0.00696553    0.01439593
     atom    6 type  2   force =     0.00000000   -0.00696553   -0.01439593
     atom    7 type  2   force =     0.00000000   -0.00696553    0.01439593
     atom    8 type  2   force =     0.00000000    0.00696553   -0.01439593
     atom    9 type  2   force =     0.00000000    0.04129955   -0.02235158
     atom   10 type  2   force =     0.00000000   -0.04129955    0.02235158
     atom   11 type  2   force =     0.00000000   -0.04129955   -0.02235158
     atom   12 type  2   force =     0.00000000   -0.04125677   -0.00000000
     atom   13 type  2   force =     0.00000000    0.04125677   -0.00000000
     atom   14 type  2   force =     0.00000000    0.04129955    0.02235158

     Total force =     0.166865     Total SCF correction =     0.000023


     Computing stress (Cartesian axis) and pressure

          total   stress  (Ry/bohr**3)                   (kbar)     P=-2338.61
  -0.01539805   0.00000000   0.00000000      -2265.13      0.00      0.00
   0.00000000  -0.01659780   0.00000000          0.00  -2441.62      0.00
   0.00000000   0.00000000  -0.01569671          0.00      0.00  -2309.07


     BFGS Geometry Optimization

     number of scf cycles    =   1
     number of bfgs steps    =   0

     enthalpy new            =    -916.1050653538 Ry

     new trust radius        =       0.5000000000 bohr
     new conv_thr            =            1.0E-10 Ry

     new unit-cell volume =   1075.93448 a.u.^3 (   159.43704 Ang^3 )
     density =      3.78857 g/cm^3

CELL_PARAMETERS (alat=  6.76758343)
   0.936166607   0.000000000   0.000000000
   0.000000000   1.218349161   0.000000000
   0.000000000   0.000000000   3.043407133

ATOMIC_POSITIONS (crystal)
V       -0.000000000   0.387412846   0.647835181
V        0.500000086   0.612587324   0.852165076
V        0.500000086   0.612587324   0.147835096
V       -0.000000000   0.387412846   0.352164990
O        0.500000086   0.493742763   0.681329628
O        0.000000000   0.506257409   0.818670630
O        0.000000000   0.506257409   0.181329541
O        0.500000086   0.493742763   0.318670545
O        0.000000000   0.049687986   0.356628776
O        0.500000086   0.950312186   0.143371310
O        0.500000086   0.950312186   0.856628861
O        0.500000086   0.499820387  -0.000000000
O        0.000000000   0.500179784   0.500000086
O        0.000000000   0.049687986   0.643371396



     Writing output data file v2o5.save/
     NEW-OLD atomic charge density approx. for the potential

     Check: negative core charge=   -0.001259
     extrapolated charge   86.58196, renormalised to  112.00000

     total cpu time spent up to now is        8.6 secs

     Self-consistent Calculation

     iteration #  1     ecut=    30.00 Ry     beta= 0.70
     Davidson diagonalization with overlap
     c_bands:  1 eigenvalues not converged
     c_bands:  1 eigenvalues not converged
     c_bands:  2 eigenvalues not converged
     c_bands:  3 eigenvalues not converged
     ethr =  1.00E-06,  avg # of iterations = 20.0

     total cpu time spent up to now is       10.5 secs

     total energy              =    -755.00468558 Ry
     Harris-Foulkes estimate   =   -1048.72997826 Ry
     estimated scf accuracy    <     177.91819582 Ry

     iteration #  2     ecut=    30.00 Ry     beta= 0.70
     Davidson diagonalization with overlap
     ethr =  1.00E-02,  avg # of iterations =  8.0

     total cpu time spent up to now is       11.8 secs

     total energy              =    -832.32506547 Ry
     Harris-Foulkes estimate   =   -1132.97393306 Ry
     estimated scf accuracy    <     807.56412224 Ry

     iteration #  3     ecut=    30.00 Ry     beta= 0.70
     Davidson diagonalization with overlap
     ethr =  1.00E-02,  avg # of iterations =  6.8

     total cpu time spent up to now is       12.7 secs

     total energy              =    -928.91736011 Ry
     Harris-Foulkes estimate   =    -944.98005759 Ry
     estimated scf accuracy    <      62.29335047 Ry

     iteration #  4     ecut=    30.00 Ry     beta= 0.70
     Davidson diagonalization with overlap
     ethr =  1.00E-02,  avg # of iterations =  3.2

     total cpu time spent up to now is       13.1 secs

     total energy              =    -922.82343119 Ry
     Harris-Foulkes estimate   =    -931.37700308 Ry
     estimated scf accuracy    <      30.55414055 Ry

     iteration #  5     ecut=    30.00 Ry     beta= 0.70
     Davidson diagonalization with overlap
     ethr =  1.00E-02,  avg # of iterations =  2.0

     total cpu time spent up to now is       13.4 secs

     total energy              =    -920.06416685 Ry
     Harris-Foulkes estimate   =    -923.78679762 Ry
     estimated scf accuracy    <      13.95255989 Ry

     iteration #  6     ecut=    30.00 Ry     beta= 0.70
     Davidson diagonalization with overlap
     ethr =  1.00E-02,  avg # of iterations =  2.2

     negative rho (up, down):  2.999E-03 0.000E+00

     total cpu time spent up to now is       13.7 secs

     total energy              =    -918.84869203 Ry
     Harris-Foulkes estimate   =    -920.58636833 Ry
     estimated scf accuracy    <       6.36375956 Ry

     iteration #  7     ecut=    30.00 Ry     beta= 0.70
     Davidson diagonalization with overlap
     ethr =  5.68E-03,  avg # of iterations =  3.2

     negative rho (up, down):  4.892E-04 0.000E+00

     total cpu time spent up to now is       14.1 secs

     total energy              =    -919.65040445 Ry
     Harris-Foulkes estimate   =    -919.78320791 Ry
     estimated scf accuracy    <       1.08056372 Ry

     iteration #  8     ecut=    30.00 Ry     beta= 0.70
     Davidson diagonalization with overlap
     ethr =  9.65E-04,  avg # of iterations =  2.5

     total cpu time spent up to now is       14.4 secs

     total energy              =    -919.58572264 Ry
     Harris-Foulkes estimate   =    -919.69718073 Ry
     estimated scf accuracy    <       0.70637262 Ry

     iteration #  9     ecut=    30.00 Ry     beta= 0.70
     Davidson diagonalization with overlap
     ethr =  6.31E-04,  avg # of iterations =  3.2

     total cpu time spent up to now is       14.7 secs

     total energy              =    -919.66919507 Ry
     Harris-Foulkes estimate   =    -919.63234246 Ry
     estimated scf accuracy    <       0.47677090 Ry

     iteration # 10     ecut=    30.00 Ry     beta= 0.70
     Davidson diagonalization with overlap
     ethr =  4.26E-04,  avg # of iterations =  2.2

     total cpu time spent up to now is       15.0 secs

     total energy              =    -919.39549683 Ry
     Harris-Foulkes estimate   =    -919.68715748 Ry
     estimated scf accuracy    <       0.63322338 Ry

     iteration # 11     ecut=    30.00 Ry     beta= 0.70
     Davidson diagonalization with overlap
     ethr =  4.26E-04,  avg # of iterations =  3.5

     total cpu time spent up to now is       15.5 secs

     total energy              =    -919.52073967 Ry
     Harris-Foulkes estimate   =    -919.52594152 Ry
     estimated scf accuracy    <       0.04748662 Ry

     iteration # 12     ecut=    30.00 Ry     beta= 0.70
     Davidson diagonalization with overlap
     ethr =  4.24E-05,  avg # of iterations =  2.0

     total cpu time spent up to now is       15.8 secs

     total energy              =    -919.51430851 Ry
     Harris-Foulkes estimate   =    -919.52220521 Ry
     estimated scf accuracy    <       0.03418855 Ry

     iteration # 13     ecut=    30.00 Ry     beta= 0.70
     Davidson diagonalization with overlap
     ethr =  3.05E-05,  avg # of iterations =  3.0

     total cpu time spent up to now is       16.1 secs

     total energy              =    -919.51616692 Ry
     Harris-Foulkes estimate   =    -919.51750981 Ry
     estimated scf accuracy    <       0.00354357 Ry

     iteration # 14     ecut=    30.00 Ry     beta= 0.70
     Davidson diagonalization with overlap
     ethr =  3.16E-06,  avg # of iterations =  4.0

     total cpu time spent up to now is       16.6 secs

     total energy              =    -919.51753029 Ry
     Harris-Foulkes estimate   =    -919.51763581 Ry
     estimated scf accuracy    <       0.00027076 Ry

     iteration # 15     ecut=    30.00 Ry     beta= 0.70
     Davidson diagonalization with overlap
     ethr =  2.42E-07,  avg # of iterations =  4.0

     total cpu time spent up to now is       17.1 secs

     total energy              =    -919.51755936 Ry
     Harris-Foulkes estimate   =    -919.51759624 Ry
     estimated scf accuracy    <       0.00008773 Ry

     iteration # 16     ecut=    30.00 Ry     beta= 0.70
     Davidson diagonalization with overlap
     ethr =  7.83E-08,  avg # of iterations =  4.0

     total cpu time spent up to now is       17.6 secs

     total energy              =    -919.51757077 Ry
     Harris-Foulkes estimate   =    -919.51758160 Ry
     estimated scf accuracy    <       0.00003268 Ry

     iteration # 17     ecut=    30.00 Ry     beta= 0.70
     Davidson diagonalization with overlap
     ethr =  2.92E-08,  avg # of iterations =  3.8

     total cpu time spent up to now is       18.0 secs

     total energy              =    -919.51757451 Ry
     Harris-Foulkes estimate   =    -919.51757498 Ry
     estimated scf accuracy    <       0.00000169 Ry

     iteration # 18     ecut=    30.00 Ry     beta= 0.70
     Davidson diagonalization with overlap
     ethr =  1.51E-09,  avg # of iterations =  4.0

     total cpu time spent up to now is       18.6 secs

     total energy              =    -919.51757540 Ry
     Harris-Foulkes estimate   =    -919.51757544 Ry
     estimated scf accuracy    <       0.00000016 Ry

     iteration # 19     ecut=    30.00 Ry     beta= 0.70
     Davidson diagonalization with overlap
     ethr =  1.40E-10,  avg # of iterations =  2.0

     total cpu time spent up to now is       18.8 secs

     total energy              =    -919.51757539 Ry
     Harris-Foulkes estimate   =    -919.51757541 Ry
     estimated scf accuracy    <       0.00000005 Ry

     iteration # 20     ecut=    30.00 Ry     beta= 0.70
     Davidson diagonalization with overlap
     ethr =  4.22E-11,  avg # of iterations =  4.0

     total cpu time spent up to now is       19.4 secs

     total energy              =    -919.51757541 Ry
     Harris-Foulkes estimate   =    -919.51757542 Ry
     estimated scf accuracy    <       0.00000004 Ry

     iteration # 21     ecut=    30.00 Ry     beta= 0.70
     Davidson diagonalization with overlap
     ethr =  3.15E-11,  avg # of iterations =  2.2

     total cpu time spent up to now is       19.7 secs

     total energy              =    -919.51757541 Ry
     Harris-Foulkes estimate   =    -919.51757541 Ry
     estimated scf accuracy    <       0.00000001 Ry

     iteration # 22     ecut=    30.00 Ry     beta= 0.70
     Davidson diagonalization with overlap
     ethr =  1.01E-11,  avg # of iterations =  3.8

     total cpu time spent up to now is       20.1 secs

     total energy              =    -919.51757541 Ry
     Harris-Foulkes estimate   =    -919.51757541 Ry
     estimated scf accuracy    <          6.2E-10 Ry

     iteration # 23     ecut=    30.00 Ry     beta= 0.70
     Davidson diagonalization with overlap
     ethr =  5.51E-13,  avg # of iterations =  2.5

     total cpu time spent up to now is       20.5 secs

     total energy              =    -919.51757541 Ry
     Harris-Foulkes estimate   =    -919.51757541 Ry
     estimated scf accuracy    <          3.9E-10 Ry

     iteration # 24     ecut=    30.00 Ry     beta= 0.70
     Davidson diagonalization with overlap
     ethr =  3.45E-13,  avg # of iterations =  3.8

     total cpu time spent up to now is       20.9 secs

     End of self-consistent calculation

          k = 0.0000 0.0000 0.0000 (  3667 PWs)   bands (ev):

   -60.2238 -60.2199 -60.2087 -60.1518 -35.1152 -35.0804 -35.0739 -35.0555
   -34.7397 -34.7038 -34.6303 -34.6006 -34.5860 -34.5639 -34.5370 -34.5329
   -13.5401 -13.4136 -12.2371 -12.2068 -11.8997 -11.7433 -11.1374 -11.1124
   -10.9312 -10.9018   0.3591   0.4001   0.4256   0.4411   1.1767   1.4492
     1.8698   2.1005   2.3320   2.4167   2.9212   2.9233   3.3529   3.4208
     3.4732   3.4993   3.5763   3.6535   3.7271   3.7513   3.9609   4.0117
     4.2538   4.3774   4.6253   4.8040   4.8864   4.9278   4.9400   5.2625

          k = 0.0000 0.2736 0.0000 (  3646 PWs)   bands (ev):

   -60.2082 -60.1996 -60.1684 -60.1547 -35.0693 -35.0663 -35.0369 -35.0318
   -34.7458 -34.6959 -34.6364 -34.6126 -34.5969 -34.5427 -34.5331 -34.5313
   -13.4869 -13.3661 -12.2064 -12.1901 -11.8676 -11.7245 -11.1264 -11.0753
   -10.8796 -10.8145   0.3501   0.3653   0.3929   0.4325   0.7064   0.8365
     1.5233   1.5728   1.6128   1.7387   2.5424   2.6138   2.7360   3.3033
     3.3729   3.5176   3.6633   3.9158   4.1181   4.2945   4.3067   4.5153
     4.6339   4.7791   4.8111   4.9051   4.9149   5.2483   5.3365   5.4676

          k = 0.3561 0.0000 0.0000 (  3672 PWs)   bands (ev):

   -60.2042 -60.1972 -60.1956 -60.1932 -35.0685 -35.0625 -35.0571 -35.0471
   -34.7554 -34.7324 -34.7076 -34.7038 -34.6026 -34.6000 -34.5668 -34.5488
   -12.8262 -12.6813 -12.0640 -11.9902 -11.7738 -11.6807 -11.0466 -11.0095
   -10.9437 -10.9283  -0.2157  -0.0511   0.6416   1.0493   1.3229   1.3673
     1.4240   1.7688   1.9700   2.1365   2.2441   2.3372   2.7850   2.9566
     3.1569   3.2947   3.3261   3.3957   3.8867   3.8881   3.8939   3.9326
     4.1685   4.1711   4.5830   4.7297   4.9304   5.0373   5.2111   5.3220

          k = 0.3561 0.2736 0.0000 (  3663 PWs)   bands (ev):

   -60.2157 -60.1891 -60.1827 -60.1752 -35.0613 -35.0581 -35.0416 -35.0346
   -34.7535 -34.7287 -34.7124 -34.6888 -34.6107 -34.5944 -34.5673 -34.5544
   -12.7824 -12.6543 -12.0597 -11.9837 -11.7426 -11.6571 -11.0218 -10.9559
   -10.8917 -10.8340  -0.2226  -0.0599   0.6018   0.8581   0.9386   0.9782
     1.2965   1.3026   1.6412   1.7463   1.8941   2.2204   2.4961   2.7653
     2.7988   3.0391   3.1617   3.1737   3.2721   3.7521   3.9262   4.4062
     4.6038   4.6890   4.9663   5.1661   5.3149   5.4009   5.5452   5.5984

     highest occupied level (ev):     5.5984

!    total energy              =    -919.51757541 Ry
     Harris-Foulkes estimate   =    -919.51757541 Ry
     estimated scf accuracy    <          1.2E-11 Ry

     The total energy is the sum of the following terms:

     one-electron contribution =    -559.46681596 Ry
     hartree contribution      =     322.33610583 Ry
     xc contribution           =    -178.23875363 Ry
     ewald contribution        =    -504.14811165 Ry

     convergence has been achieved in  24 iterations

     Forces acting on atoms (cartesian axes, Ry/au):

     atom    1 type  1   force =     0.00000000    0.14928985    0.07190122
     atom    2 type  1   force =     0.00000000   -0.14928985   -0.07190122
     atom    3 type  1   force =     0.00000000   -0.14928985    0.07190122
     atom    4 type  1   force =    -0.00000000    0.14928985   -0.07190122
     atom    5 type  2   force =    -0.00000000    0.05018546   -0.01661337
     atom    6 type  2   force =     0.00000000   -0.05018546    0.01661337
     atom    7 type  2   force =     0.00000000   -0.05018546   -0.01661337
     atom    8 type  2   force =     0.00000000    0.05018546    0.01661337
     atom    9 type  2   force =    -0.00000000   -0.27088361   -0.00740834
     atom   10 type  2   force =     0.00000000    0.27088361    0.00740834
     atom   11 type  2   force =     0.00000000    0.27088361   -0.00740834
     atom   12 type  2   force =     0.00000000   -0.12411806   -0.00000000
     atom   13 type  2   force =     0.00000000    0.12411806   -0.00000000
     atom   14 type  2   force =     0.00000000   -0.27088361    0.00740834

     Total force =     0.667495     Total SCF correction =     0.000016


     Computing stress (Cartesian axis) and pressure

          total   stress  (Ry/bohr**3)                   (kbar)     P=-1662.50
  -0.01139211   0.00000000   0.00000000      -1675.84      0.00      0.00
   0.00000000  -0.01098780   0.00000000          0.00  -1616.36      0.00
   0.00000000   0.00000000  -0.01152446          0.00      0.00  -1695.31


     number of scf cycles    =   2
     number of bfgs steps    =   1

     enthalpy old            =    -916.1050653538 Ry
     enthalpy new            =    -919.5175754100 Ry

     CASE: enthalpy_new < enthalpy_old

     new trust radius        =       0.7271218459 bohr
     new conv_thr            =            1.0E-10 Ry

     new unit-cell volume =    785.11691 a.u.^3 (   116.34232 Ang^3 )
     density =      5.19190 g/cm^3

CELL_PARAMETERS (alat=  6.76758343)
   0.832404822   0.000000000   0.000000000
   0.000000000   1.124194012   0.000000000
   0.000000000   0.000000000   2.706809052

ATOMIC_POSITIONS (crystal)
V        0.000000000   0.415305111   0.651934633
V        0.500000195   0.584695278   0.848065952
V        0.500000195   0.584695278   0.151934438
V       -0.000000000   0.415305111   0.348065757
O        0.500000195   0.501044121   0.679832900
O        0.000000000   0.498956270   0.820167686
O        0.000000000   0.498956270   0.179832704
O        0.500000195   0.501044121   0.320167491
O       -0.000000000   0.004152454   0.356859238
O        0.500000195   0.995847936   0.143140957
O        0.500000195   0.995847936   0.856859433
O        0.500000195   0.483628913  -0.000000000
O        0.000000000   0.516371476   0.500000195
O        0.000000000   0.004152454   0.643141152



     Writing output data file v2o5.save/
     NEW-OLD atomic charge density approx. for the potential

     Check: negative core charge=   -0.000571

     negative rho (up, down):  4.464E-02 0.000E+00
     extrapolated charge   70.51529, renormalised to  112.00000

     total cpu time spent up to now is       21.5 secs

     Self-consistent Calculation

     iteration #  1     ecut=    30.00 Ry     beta= 0.70
     Davidson diagonalization with overlap
     c_bands:  5 eigenvalues not converged
     ethr =  1.00E-06,  avg # of iterations = 18.8

     negative rho (up, down):  9.758E-04 0.000E+00

     total cpu time spent up to now is       23.8 secs

     total energy              =    -664.22099639 Ry
     Harris-Foulkes estimate   =   -1133.04627455 Ry
     estimated scf accuracy    <     295.90285538 Ry

     iteration #  2     ecut=    30.00 Ry     beta= 0.70
     Davidson diagonalization with overlap
     ethr =  1.00E-02,  avg # of iterations =  9.2

     total cpu time spent up to now is       25.1 secs

     total energy              =    -812.02004157 Ry
     Harris-Foulkes estimate   =   -1276.20404442 Ry
     estimated scf accuracy    <    1237.82994681 Ry

     iteration #  3     ecut=    30.00 Ry     beta= 0.70
     Davidson diagonalization with overlap
     ethr =  1.00E-02,  avg # of iterations =  7.8

     total cpu time spent up to now is       26.1 secs

     total energy              =    -928.48176534 Ry
     Harris-Foulkes estimate   =    -952.49010566 Ry
     estimated scf accuracy    <      84.64559039 Ry

     iteration #  4     ecut=    30.00 Ry     beta= 0.70
     Davidson diagonalization with overlap
     ethr =  1.00E-02,  avg # of iterations =  5.0

     total cpu time spent up to now is       26.7 secs

     total energy              =    -920.89008223 Ry
     Harris-Foulkes estimate   =    -933.54773650 Ry
     estimated scf accuracy    <      35.05071909 Ry

     iteration #  5     ecut=    30.00 Ry     beta= 0.70
     Davidson diagonalization with overlap
     ethr =  1.00E-02,  avg # of iterations =  3.2

     total cpu time spent up to now is       27.2 secs

     total energy              =    -920.58720330 Ry
     Harris-Foulkes estimate   =    -923.22527189 Ry
     estimated scf accuracy    <       8.72832677 Ry

     iteration #  6     ecut=    30.00 Ry     beta= 0.70
     Davidson diagonalization with overlap
     ethr =  7.79E-03,  avg # of iterations =  3.8

     negative rho (up, down):  2.917E-04 0.000E+00

     total cpu time spent up to now is       27.5 secs

     total energy              =    -920.56238738 Ry
     Harris-Foulkes estimate   =    -921.46557700 Ry
     estimated scf accuracy    <       2.85978829 Ry

     iteration #  7     ecut=    30.00 Ry     beta= 0.70
     Davidson diagonalization with overlap
     ethr =  2.55E-03,  avg # of iterations =  5.0

     total cpu time spent up to now is       28.1 secs

     total energy              =    -921.30008862 Ry
     Harris-Foulkes estimate   =    -921.49771533 Ry
     estimated scf accuracy    <       0.66112854 Ry

     iteration #  8     ecut=    30.00 Ry     beta= 0.70
     Davidson diagonalization with overlap
     ethr =  5.90E-04,  avg # of iterations =  4.0

     total cpu time spent up to now is       28.5 secs

     total energy              =    -921.30338567 Ry
     Harris-Foulkes estimate   =    -921.36605206 Ry
     estimated scf accuracy    <       0.13753105 Ry

     iteration #  9     ecut=    30.00 Ry     beta= 0.70
     Davidson diagonalization with overlap
     ethr =  1.23E-04,  avg # of iterations =  4.5

     total cpu time spent up to now is       29.0 secs

     total energy              =    -921.34300641 Ry
     Harris-Foulkes estimate   =    -921.34734963 Ry
     estimated scf accuracy    <       0.03395531 Ry

     iteration # 10     ecut=    30.00 Ry     beta= 0.70
     Davidson diagonalization with overlap
     ethr =  3.03E-05,  avg # of iterations =  5.8

     total cpu time spent up to now is       29.6 secs

     total energy              =    -921.30229138 Ry
     Harris-Foulkes estimate   =    -921.36174368 Ry
     estimated scf accuracy    <       0.14940846 Ry

     iteration # 11     ecut=    30.00 Ry     beta= 0.70
     Davidson diagonalization with overlap
     ethr =  3.03E-05,  avg # of iterations =  5.2

     total cpu time spent up to now is       30.4 secs

     total energy              =    -921.33277401 Ry
     Harris-Foulkes estimate   =    -921.34451731 Ry
     estimated scf accuracy    <       0.05065179 Ry

     iteration # 12     ecut=    30.00 Ry     beta= 0.70
     Davidson diagonalization with overlap
     ethr =  3.03E-05,  avg # of iterations =  5.2

     total cpu time spent up to now is       30.8 secs

     total energy              =    -921.33719849 Ry
     Harris-Foulkes estimate   =    -921.33745465 Ry
     estimated scf accuracy    <       0.00071032 Ry

     iteration # 13     ecut=    30.00 Ry     beta= 0.70
     Davidson diagonalization with overlap
     ethr =  6.34E-07,  avg # of iterations =  5.0

     total cpu time spent up to now is       31.6 secs

     total energy              =    -921.33779213 Ry
     Harris-Foulkes estimate   =    -921.33795046 Ry
     estimated scf accuracy    <       0.00072167 Ry

     iteration # 14     ecut=    30.00 Ry     beta= 0.70
     Davidson diagonalization with overlap
     ethr =  6.34E-07,  avg # of iterations =  2.2

     total cpu time spent up to now is       31.9 secs

     total energy              =    -921.33776019 Ry
     Harris-Foulkes estimate   =    -921.33781763 Ry
     estimated scf accuracy    <       0.00024019 Ry

     iteration # 15     ecut=    30.00 Ry     beta= 0.70
     Davidson diagonalization with overlap
     ethr =  2.14E-07,  avg # of iterations =  4.2

     total cpu time spent up to now is       32.4 secs

     total energy              =    -921.33782505 Ry
     Harris-Foulkes estimate   =    -921.33783072 Ry
     estimated scf accuracy    <       0.00003379 Ry

     iteration # 16     ecut=    30.00 Ry     beta= 0.70
     Davidson diagonalization with overlap
     ethr =  3.02E-08,  avg # of iterations =  1.8

     total cpu time spent up to now is       32.6 secs

     total energy              =    -921.33782215 Ry
     Harris-Foulkes estimate   =    -921.33782589 Ry
     estimated scf accuracy    <       0.00001719 Ry

     iteration # 17     ecut=    30.00 Ry     beta= 0.70
     Davidson diagonalization with overlap
     ethr =  1.53E-08,  avg # of iterations =  5.0

     total cpu time spent up to now is       33.1 secs

     total energy              =    -921.33782568 Ry
     Harris-Foulkes estimate   =    -921.33782664 Ry
     estimated scf accuracy    <       0.00000284 Ry

     iteration # 18     ecut=    30.00 Ry     beta= 0.70
     Davidson diagonalization with overlap
     ethr =  2.54E-09,  avg # of iterations =  5.0

     total cpu time spent up to now is       33.6 secs

     total energy              =    -921.33782635 Ry
     Harris-Foulkes estimate   =    -921.33782650 Ry
     estimated scf accuracy    <       0.00000124 Ry

     iteration # 19     ecut=    30.00 Ry     beta= 0.70
     Davidson diagonalization with overlap
     ethr =  1.11E-09,  avg # of iterations =  1.8

     total cpu time spent up to now is       33.9 secs

     total energy              =    -921.33782619 Ry
     Harris-Foulkes estimate   =    -921.33782637 Ry
     estimated scf accuracy    <       0.00000093 Ry

     iteration # 20     ecut=    30.00 Ry     beta= 0.70
     Davidson diagonalization with overlap
     ethr =  8.27E-10,  avg # of iterations =  3.0

     total cpu time spent up to now is       34.2 secs

     total energy              =    -921.33782626 Ry
     Harris-Foulkes estimate   =    -921.33782625 Ry
     estimated scf accuracy    <       0.00000019 Ry

     iteration # 21     ecut=    30.00 Ry     beta= 0.70
     Davidson diagonalization with overlap
     ethr =  1.66E-10,  avg # of iterations =  4.0

     total cpu time spent up to now is       34.6 secs

     total energy              =    -921.33782628 Ry
     Harris-Foulkes estimate   =    -921.33782627 Ry
     estimated scf accuracy    <       0.00000015 Ry

     iteration # 22     ecut=    30.00 Ry     beta= 0.70
     Davidson diagonalization with overlap
     ethr =  1.37E-10,  avg # of iterations =  1.0

     total cpu time spent up to now is       34.8 secs

     total energy              =    -921.33782626 Ry
     Harris-Foulkes estimate   =    -921.33782628 Ry
     estimated scf accuracy    <       0.00000016 Ry

     iteration # 23     ecut=    30.00 Ry     beta= 0.70
     Davidson diagonalization with overlap
     ethr =  1.37E-10,  avg # of iterations =  1.8

     total cpu time spent up to now is       35.1 secs

     total energy              =    -921.33782625 Ry
     Harris-Foulkes estimate   =    -921.33782627 Ry
     estimated scf accuracy    <       0.00000010 Ry

     iteration # 24     ecut=    30.00 Ry     beta= 0.70
     Davidson diagonalization with overlap
     ethr =  8.95E-11,  avg # of iterations =  4.0

     total cpu time spent up to now is       35.4 secs

     total energy              =    -921.33782626 Ry
     Harris-Foulkes estimate   =    -921.33782626 Ry
     estimated scf accuracy    <       0.00000001 Ry

     iteration # 25     ecut=    30.00 Ry     beta= 0.70
     Davidson diagonalization with overlap
     ethr =  1.25E-11,  avg # of iterations =  4.5

     total cpu time spent up to now is       36.0 secs

     total energy              =    -921.33782626 Ry
     Harris-Foulkes estimate   =    -921.33782626 Ry
     estimated scf accuracy    <          2.1E-09 Ry

     iteration # 26     ecut=    30.00 Ry     beta= 0.70
     Davidson diagonalization with overlap
     ethr =  1.86E-12,  avg # of iterations =  3.8

     total cpu time spent up to now is       36.4 secs

     total energy              =    -921.33782626 Ry
     Harris-Foulkes estimate   =    -921.33782626 Ry
     estimated scf accuracy    <          3.1E-09 Ry

     iteration # 27     ecut=    30.00 Ry     beta= 0.70
     Davidson diagonalization with overlap
     ethr =  1.86E-12,  avg # of iterations =  1.0

     total cpu time spent up to now is       36.6 secs

     total energy              =    -921.33782626 Ry
     Harris-Foulkes estimate   =    -921.33782626 Ry
     estimated scf accuracy    <          2.8E-09 Ry

     iteration # 28     ecut=    30.00 Ry     beta= 0.70
     Davidson diagonalization with overlap
     ethr =  1.86E-12,  avg # of iterations =  3.8

     total cpu time spent up to now is       37.0 secs

     total energy              =    -921.33782626 Ry
     Harris-Foulkes estimate   =    -921.33782626 Ry
     estimated scf accuracy    <          2.2E-10 Ry

     iteration # 29     ecut=    30.00 Ry     beta= 0.70
     Davidson diagonalization with overlap
     ethr =  1.99E-13,  avg # of iterations =  4.5

     total cpu time spent up to now is       37.4 secs

     End of self-consistent calculation

          k = 0.0000 0.0000 0.0000 (  3667 PWs)   bands (ev):

   -54.3561 -54.3035 -54.1659 -54.1396 -29.6503 -29.4198 -29.2231 -29.2110
   -28.9014 -28.8406 -28.8176 -28.6442 -28.1395 -28.1093 -28.1024 -28.0644
   -10.6565 -10.3316  -9.9521  -9.8570  -7.4869  -7.2176  -5.6382  -5.5119
    -5.0051  -4.8383   2.0187   2.2255   2.9025   3.0824   3.6277   4.1211
     5.2038   5.2855   5.7117   5.8722   6.5396   6.8251   7.0795   7.1237
     7.2929   7.3184   7.6496   7.7077   8.5488   9.3398   9.5237   9.7103
     9.8191   9.9758  10.1007  10.1446  10.2379  11.1556  11.2338  11.4079

          k = 0.0000 0.2965 0.0000 (  3646 PWs)   bands (ev):

   -54.3241 -54.3196 -54.1486 -54.1238 -29.6464 -29.4191 -29.2254 -29.2087
   -28.9096 -28.8370 -28.8193 -28.6413 -28.1334 -28.1080 -28.0999 -28.0770
   -10.5897 -10.2868  -9.9364  -9.8434  -7.4361  -7.1928  -5.4858  -5.3105
    -4.7669  -4.5474   2.0369   2.2175   2.8913   3.0650   3.2299   3.5464
     5.0482   5.0764   5.2453   5.2677   6.4749   6.8010   6.8299   6.8465
     6.9239   7.2251   7.4609   7.7022   8.3084   8.4221   9.1247   9.2970
    10.0242  10.0560  10.3412  10.4935  10.8341  11.0047  11.1791  11.4636

          k = 0.4004 0.0000 0.0000 (  3672 PWs)   bands (ev):

   -54.2634 -54.2532 -54.1781 -54.1718 -29.7707 -29.6982 -29.6522 -29.6409
   -28.9575 -28.8447 -28.8100 -28.6219 -28.1041 -28.0897 -28.0895 -28.0725
    -9.2156  -8.7583  -8.6738  -8.3343  -7.0382  -6.8941  -5.3191  -5.1758
    -4.9841  -4.8485   1.4130   1.7566   2.2197   2.4840   3.4393   3.5238
     3.7164   4.0175   4.3883   5.3663   6.0324   6.0528   6.4244   6.7696
     6.8551   7.6459   7.8235   8.4334   8.7105   8.8232   9.0293   9.1331
     9.8044   9.9537   9.9899  10.1221  10.1963  10.6447  10.6834  11.2759

          k = 0.4004 0.2965 0.0000 (  3663 PWs)   bands (ev):

   -54.2676 -54.2499 -54.1744 -54.1576 -29.7679 -29.6972 -29.6509 -29.6382
   -28.9597 -28.8455 -28.8091 -28.6257 -28.1111 -28.0961 -28.0908 -28.0820
    -9.1597  -8.7263  -8.6673  -8.3297  -6.9996  -6.8782  -5.1212  -4.9515
    -4.7443  -4.5529   1.4130   1.7491   2.2205   2.4169   3.1773   3.2990
     3.5098   3.5517   4.4143   5.1106   5.5121   5.8290   6.1555   6.4639
     6.5337   7.4161   7.4207   7.8943   8.4317   8.5645   8.6332   8.8592
     9.9001   9.9387   9.9820  10.0334  10.6763  10.6882  11.1496  11.3345

     highest occupied level (ev):    11.4636

!    total energy              =    -921.33782626 Ry
     Harris-Foulkes estimate   =    -921.33782626 Ry
     estimated scf accuracy    <          4.3E-11 Ry

     The total energy is the sum of the following terms:

     one-electron contribution =    -460.89301937 Ry
     hartree contribution      =     294.88985285 Ry
     xc contribution           =    -181.91634545 Ry
     ewald contribution        =    -573.41831429 Ry

     convergence has been achieved in  29 iterations

     Forces acting on atoms (cartesian axes, Ry/au):

     atom    1 type  1   force =    -0.00000000   -0.49813826   -0.13084049
     atom    2 type  1   force =    -0.00000000    0.49813826    0.13084049
     atom    3 type  1   force =     0.00000000    0.49813826   -0.13084049
     atom    4 type  1   force =     0.00000000   -0.49813826    0.13084049
     atom    5 type  2   force =    -0.00000000    0.16065867   -0.18121310
     atom    6 type  2   force =     0.00000000   -0.16065867    0.18121310
     atom    7 type  2   force =     0.00000000   -0.16065867   -0.18121310
     atom    8 type  2   force =     0.00000000    0.16065867    0.18121310
     atom    9 type  2   force =    -0.00000000    0.01668108    0.01504028
     atom   10 type  2   force =     0.00000000   -0.01668108   -0.01504028
     atom   11 type  2   force =     0.00000000   -0.01668108    0.01504028
     atom   12 type  2   force =    -0.00000000   -0.26114898    0.00000000
     atom   13 type  2   force =     0.00000000    0.26114898    0.00000000
     atom   14 type  2   force =    -0.00000000    0.01668108   -0.01504028

     Total force =     1.197521     Total SCF correction =     0.000033


     Computing stress (Cartesian axis) and pressure

          total   stress  (Ry/bohr**3)                   (kbar)     P=  217.91
   0.00756238   0.00000000   0.00000000       1112.46      0.00      0.00
   0.00000000  -0.00946167   0.00000000          0.00  -1391.86      0.00
   0.00000000   0.00000000   0.00634327          0.00      0.00    933.13


     number of scf cycles    =   3
     number of bfgs steps    =   2

     enthalpy old            =    -919.5175754100 Ry
     enthalpy new            =    -921.3378262620 Ry

     CASE: enthalpy_new < enthalpy_old

     new trust radius        =       0.8000000000 bohr
     new conv_thr            =            1.0E-10 Ry

     new unit-cell volume =    715.07335 a.u.^3 (   105.96294 Ang^3 )
     density =      5.70046 g/cm^3

CELL_PARAMETERS (alat=  6.76758343)
   0.864030251   0.000000000   0.000000000
   0.000000000   0.963709141   0.000000000
   0.000000000   0.000000000   2.770606244

ATOMIC_POSITIONS (crystal)
V       -0.000000000   0.400526452   0.650977521
V        0.500000236   0.599474020   0.849023188
V        0.500000236   0.599474020   0.150977285
V       -0.000000000   0.400526452   0.349022952
O        0.500000236   0.513104361   0.675300152
O        0.000000000   0.486896112   0.824700558
O        0.000000000   0.486896112   0.175299915
O        0.500000236   0.513104361   0.324700322
O       -0.000000000  -0.015317711   0.357287404
O        0.500000236   1.015318184   0.142712832
O        0.500000236   1.015318184   0.857287641
O        0.500000236   0.462107596  -0.000000000
O        0.000000000   0.537892876   0.500000236
O       -0.000000000  -0.015317711   0.642713068



     Writing output data file v2o5.save/
     NEW-OLD atomic charge density approx. for the potential

     Check: negative core charge=   -0.000516
     extrapolated charge  101.02968, renormalised to  112.00000

     total cpu time spent up to now is       38.1 secs

     Self-consistent Calculation

     iteration #  1     ecut=    30.00 Ry     beta= 0.70
     Davidson diagonalization with overlap
     c_bands:  3 eigenvalues not converged
     ethr =  1.00E-06,  avg # of iterations = 19.2

     total cpu time spent up to now is       40.4 secs

     total energy              =    -876.50667145 Ry
     Harris-Foulkes estimate   =    -958.40499345 Ry
     estimated scf accuracy    <      47.09061348 Ry

     iteration #  2     ecut=    30.00 Ry     beta= 0.70
     Davidson diagonalization with overlap
     ethr =  1.00E-02,  avg # of iterations =  5.2

     total cpu time spent up to now is       41.2 secs

     total energy              =    -906.26279794 Ry
     Harris-Foulkes estimate   =    -980.51331827 Ry
     estimated scf accuracy    <     199.11773407 Ry

     iteration #  3     ecut=    30.00 Ry     beta= 0.70
     Davidson diagonalization with overlap
     ethr =  1.00E-02,  avg # of iterations =  6.5

     total cpu time spent up to now is       42.0 secs

     total energy              =    -924.57198553 Ry
     Harris-Foulkes estimate   =    -930.81330973 Ry
     estimated scf accuracy    <      27.05186725 Ry

     iteration #  4     ecut=    30.00 Ry     beta= 0.70
     Davidson diagonalization with overlap
     ethr =  1.00E-02,  avg # of iterations =  3.5

     total cpu time spent up to now is       42.3 secs

     total energy              =    -922.25505864 Ry
     Harris-Foulkes estimate   =    -925.92677097 Ry
     estimated scf accuracy    <      15.01676409 Ry

     iteration #  5     ecut=    30.00 Ry     beta= 0.70
     Davidson diagonalization with overlap
     ethr =  1.00E-02,  avg # of iterations =  2.8

     total cpu time spent up to now is       42.6 secs

     total energy              =    -922.22972856 Ry
     Harris-Foulkes estimate   =    -923.19808034 Ry
     estimated scf accuracy    <       5.83460007 Ry

     iteration #  6     ecut=    30.00 Ry     beta= 0.70
     Davidson diagonalization with overlap
     ethr =  5.21E-03,  avg # of iterations =  2.2

     negative rho (up, down):  2.748E-03 0.000E+00

     total cpu time spent up to now is       42.9 secs

     total energy              =    -920.94841647 Ry
     Harris-Foulkes estimate   =    -922.42297815 Ry
     estimated scf accuracy    <       3.87378265 Ry

     iteration #  7     ecut=    30.00 Ry     beta= 0.70
     Davidson diagonalization with overlap
     ethr =  3.46E-03,  avg # of iterations =  4.0

     negative rho (up, down):  2.082E-04 0.000E+00

     total cpu time spent up to now is       43.4 secs

     total energy              =    -922.01525066 Ry
     Harris-Foulkes estimate   =    -922.08302077 Ry
     estimated scf accuracy    <       0.43960515 Ry

     iteration #  8     ecut=    30.00 Ry     beta= 0.70
     Davidson diagonalization with overlap
     ethr =  3.93E-04,  avg # of iterations =  2.0

     total cpu time spent up to now is       43.7 secs

     total energy              =    -921.88267823 Ry
     Harris-Foulkes estimate   =    -922.02808421 Ry
     estimated scf accuracy    <       0.28867993 Ry

     iteration #  9     ecut=    30.00 Ry     beta= 0.70
     Davidson diagonalization with overlap
     ethr =  2.58E-04,  avg # of iterations =  4.0

     total cpu time spent up to now is       44.2 secs

     total energy              =    -922.00443349 Ry
     Harris-Foulkes estimate   =    -922.01338421 Ry
     estimated scf accuracy    <       0.14486946 Ry

     iteration # 10     ecut=    30.00 Ry     beta= 0.70
     Davidson diagonalization with overlap
     ethr =  1.29E-04,  avg # of iterations =  1.0

     total cpu time spent up to now is       44.5 secs

     total energy              =    -921.93610225 Ry
     Harris-Foulkes estimate   =    -922.00555324 Ry
     estimated scf accuracy    <       0.12736560 Ry

     iteration # 11     ecut=    30.00 Ry     beta= 0.70
     Davidson diagonalization with overlap
     ethr =  1.14E-04,  avg # of iterations =  4.0

     total cpu time spent up to now is       45.0 secs

     total energy              =    -921.96809990 Ry
     Harris-Foulkes estimate   =    -921.99304458 Ry
     estimated scf accuracy    <       0.06652935 Ry

     iteration # 12     ecut=    30.00 Ry     beta= 0.70
     Davidson diagonalization with overlap
     ethr =  5.94E-05,  avg # of iterations =  4.0

     total cpu time spent up to now is       45.5 secs

     total energy              =    -921.97970913 Ry
     Harris-Foulkes estimate   =    -921.97970791 Ry
     estimated scf accuracy    <       0.00070332 Ry

     iteration # 13     ecut=    30.00 Ry     beta= 0.70
     Davidson diagonalization with overlap
     ethr =  6.28E-07,  avg # of iterations =  4.8

     total cpu time spent up to now is       46.3 secs

     total energy              =    -921.97982077 Ry
     Harris-Foulkes estimate   =    -921.98047580 Ry
     estimated scf accuracy    <       0.00262515 Ry

     iteration # 14     ecut=    30.00 Ry     beta= 0.70
     Davidson diagonalization with overlap
     ethr =  6.28E-07,  avg # of iterations =  3.0

     total cpu time spent up to now is       46.7 secs

     total energy              =    -921.97986661 Ry
     Harris-Foulkes estimate   =    -921.97999403 Ry
     estimated scf accuracy    <       0.00039955 Ry

     iteration # 15     ecut=    30.00 Ry     beta= 0.70
     Davidson diagonalization with overlap
     ethr =  3.57E-07,  avg # of iterations =  3.0

     total cpu time spent up to now is       47.0 secs

     total energy              =    -921.97988229 Ry
     Harris-Foulkes estimate   =    -921.97990190 Ry
     estimated scf accuracy    <       0.00005942 Ry

     iteration # 16     ecut=    30.00 Ry     beta= 0.70
     Davidson diagonalization with overlap
     ethr =  5.31E-08,  avg # of iterations =  4.0

     total cpu time spent up to now is       47.6 secs

     total energy              =    -921.97990762 Ry
     Harris-Foulkes estimate   =    -921.97991043 Ry
     estimated scf accuracy    <       0.00000924 Ry

     iteration # 17     ecut=    30.00 Ry     beta= 0.70
     Davidson diagonalization with overlap
     ethr =  8.25E-09,  avg # of iterations =  3.2

     total cpu time spent up to now is       47.9 secs

     total energy              =    -921.97990772 Ry
     Harris-Foulkes estimate   =    -921.97990837 Ry
     estimated scf accuracy    <       0.00000235 Ry

     iteration # 18     ecut=    30.00 Ry     beta= 0.70
     Davidson diagonalization with overlap
     ethr =  2.10E-09,  avg # of iterations =  4.0

     total cpu time spent up to now is       48.4 secs

     total energy              =    -921.97990839 Ry
     Harris-Foulkes estimate   =    -921.97990840 Ry
     estimated scf accuracy    <       0.00000004 Ry

     iteration # 19     ecut=    30.00 Ry     beta= 0.70
     Davidson diagonalization with overlap
     ethr =  3.15E-11,  avg # of iterations =  4.5

     total cpu time spent up to now is       49.0 secs

     total energy              =    -921.97990840 Ry
     Harris-Foulkes estimate   =    -921.97990841 Ry
     estimated scf accuracy    <       0.00000002 Ry

     iteration # 20     ecut=    30.00 Ry     beta= 0.70
     Davidson diagonalization with overlap
     ethr =  2.00E-11,  avg # of iterations =  2.5

     total cpu time spent up to now is       49.3 secs

     total energy              =    -921.97990840 Ry
     Harris-Foulkes estimate   =    -921.97990840 Ry
     estimated scf accuracy    <          7.1E-09 Ry

     iteration # 21     ecut=    30.00 Ry     beta= 0.70
     Davidson diagonalization with overlap
     ethr =  6.38E-12,  avg # of iterations =  4.0

     total cpu time spent up to now is       49.8 secs

     total energy              =    -921.97990840 Ry
     Harris-Foulkes estimate   =    -921.97990840 Ry
     estimated scf accuracy    <          2.6E-10 Ry

     iteration # 22     ecut=    30.00 Ry     beta= 0.70
     Davidson diagonalization with overlap
     ethr =  2.32E-13,  avg # of iterations =  4.5

     total cpu time spent up to now is       50.3 secs

     End of self-consistent calculation

          k = 0.0000 0.0000 0.0000 (  3667 PWs)   bands (ev):

   -51.7814 -51.7571 -51.6708 -51.6454 -26.6305 -26.5628 -26.4898 -26.4562
   -26.3857 -26.2332 -26.2278 -26.2201 -25.9702 -25.9622 -25.9462 -25.7620
    -7.9121  -7.5608  -6.7625  -6.7057  -5.5391  -5.1275  -4.7938  -4.6204
    -4.2426  -4.0795   5.6396   5.7094   6.3289   6.4199   6.7007   7.6186
     7.6403   8.0619   8.0681   8.7550   8.9834   9.0737   9.1617   9.2754
     9.4015   9.4911   9.7121   9.8281   9.9118  10.0642  10.0716  10.0970
    10.4398  11.0284  11.2276  11.4022  11.6914  11.7502  11.8218  11.8694

          k = 0.0000 0.3459 0.0000 (  3646 PWs)   bands (ev):

   -51.7627 -51.7597 -51.6719 -51.6441 -26.6672 -26.6181 -26.5761 -26.5451
   -26.4074 -26.2377 -26.2309 -26.2139 -25.9724 -25.9595 -25.9468 -25.7566
    -7.5536  -7.2658  -6.6562  -6.6035  -5.0932  -4.7450  -4.1582  -4.0307
    -3.6413  -3.5783   5.1550   5.2859   5.4012   5.7421   5.9831   6.0489
     6.1663   6.5104   6.6722   6.8789   7.4674   7.6834   8.1864   8.8326
     9.0224   9.0514   9.7176   9.8319  10.0438  10.3233  10.5988  10.8175
    10.9902  11.2204  11.5160  11.8520  11.9064  11.9093  12.2600  12.8747

          k = 0.3858 0.0000 0.0000 (  3672 PWs)   bands (ev):

   -51.7340 -51.7256 -51.6875 -51.6773 -26.6752 -26.6117 -26.5817 -26.5440
   -26.4568 -26.4190 -26.4107 -26.3490 -26.0511 -25.9558 -25.9316 -25.7772
    -6.7159  -6.2376  -5.7525  -5.5143  -5.3723  -4.8457  -4.6959  -4.6031
    -4.1039  -3.9631   4.8547   5.1238   5.3784   5.9573   6.4393   6.6714
     6.6875   7.0337   7.5921   8.0199   8.1092   8.3597   8.6607   8.8402
     8.8586   9.0445   9.1471   9.6887   9.7559   9.9500  10.0798  10.3780
    10.4979  10.8226  11.1032  11.1900  12.0612  12.1767  12.2430  12.2551

          k = 0.3858 0.3459 0.0000 (  3663 PWs)   bands (ev):

   -51.7395 -51.7197 -51.6835 -51.6687 -26.6947 -26.6465 -26.5875 -26.5662
   -26.5246 -26.4675 -26.4520 -26.3757 -26.0498 -25.9494 -25.9288 -25.7784
    -6.3544  -5.9688  -5.6915  -5.4828  -4.8332  -4.5108  -3.9230  -3.7803
    -3.6662  -3.5634   4.7369   4.8782   4.9548   5.2244   5.2353   5.5878
     5.8044   6.3028   6.4126   6.7363   6.7527   7.4725   7.6173   7.9691
     8.2990   8.3512   8.7830   8.8140   9.0988   9.7687  10.6556  11.2118
    11.3431  11.3803  11.6864  11.8104  11.8742  11.9265  12.6420  12.7896

     highest occupied level (ev):    12.8747

!    total energy              =    -921.97990840 Ry
     Harris-Foulkes estimate   =    -921.97990840 Ry
     estimated scf accuracy    <          6.4E-11 Ry

     The total energy is the sum of the following terms:

     one-electron contribution =    -379.96418164 Ry
     hartree contribution      =     263.59516556 Ry
     xc contribution           =    -182.87947285 Ry
     ewald contribution        =    -622.73141948 Ry

     convergence has been achieved in  22 iterations

     Forces acting on atoms (cartesian axes, Ry/au):

     atom    1 type  1   force =     0.00000000    0.13185374    0.01172405
     atom    2 type  1   force =     0.00000000   -0.13185374   -0.01172405
     atom    3 type  1   force =     0.00000000   -0.13185374    0.01172405
     atom    4 type  1   force =     0.00000000    0.13185374   -0.01172405
     atom    5 type  2   force =     0.00000000    0.11476296   -0.06227385
     atom    6 type  2   force =     0.00000000   -0.11476296    0.06227385
     atom    7 type  2   force =     0.00000000   -0.11476296   -0.06227385
     atom    8 type  2   force =    -0.00000000    0.11476296    0.06227385
     atom    9 type  2   force =     0.00000000   -0.39425658   -0.00039597
     atom   10 type  2   force =    -0.00000000    0.39425658    0.00039597
     atom   11 type  2   force =     0.00000000    0.39425658   -0.00039597
     atom   12 type  2   force =     0.00000000   -0.13884347   -0.00000000
     atom   13 type  2   force =     0.00000000    0.13884347   -0.00000000
     atom   14 type  2   force =     0.00000000   -0.39425658    0.00039597

     Total force =     0.893641     Total SCF correction =     0.000042


     Computing stress (Cartesian axis) and pressure

          total   stress  (Ry/bohr**3)                   (kbar)     P=  775.99
   0.00329089   0.00000000   0.00000000        484.11      0.00      0.00
   0.00000000   0.00964718   0.00000000          0.00   1419.15      0.00
   0.00000000   0.00000000   0.00288719          0.00      0.00    424.72


     number of scf cycles    =   4
     number of bfgs steps    =   3

     enthalpy old            =    -921.3378262620 Ry
     enthalpy new            =    -921.9799084043 Ry

     CASE: enthalpy_new < enthalpy_old

     new trust radius        =       0.3729309095 bohr
     new conv_thr            =            1.0E-10 Ry

     new unit-cell volume =    780.55807 a.u.^3 (   115.66677 Ang^3 )
     density =      5.22222 g/cm^3

CELL_PARAMETERS (alat=  6.76758343)
   0.876780695   0.000000000   0.000000000
   0.000000000   1.030909110   0.000000000
   0.000000000   0.000000000   2.786076310

ATOMIC_POSITIONS (crystal)
V       -0.000000000   0.393693201   0.649702228
V        0.500000208   0.606307214   0.850298396
V        0.500000208   0.606307214   0.149702020
V       -0.000000000   0.393693201   0.350298188
O        0.500000208   0.519866607   0.673302255
O        0.000000000   0.480133809   0.826698370
O        0.000000000   0.480133809   0.173302046
O        0.500000208   0.519866607   0.326698162
O       -0.000000000  -0.025055541   0.357103593
O        0.500000208   1.025055957   0.142896615
O        0.500000208   1.025055957   0.857103801
O        0.500000208   0.454483216  -0.000000000
O        0.000000000   0.545517199   0.500000208
O       -0.000000000  -0.025055541   0.642896823



     Writing output data file v2o5.save/
     NEW-OLD atomic charge density approx. for the potential

     Check: negative core charge=   -0.000611
     extrapolated charge  121.39586, renormalised to  112.00000

     total cpu time spent up to now is       50.9 secs

     Self-consistent Calculation

     iteration #  1     ecut=    30.00 Ry     beta= 0.70
     Davidson diagonalization with overlap
     ethr =  1.00E-06,  avg # of iterations = 10.5

     total cpu time spent up to now is       52.3 secs

     total energy              =    -916.48332524 Ry
     Harris-Foulkes estimate   =    -894.85866062 Ry
     estimated scf accuracy    <       4.59536634 Ry

     iteration #  2     ecut=    30.00 Ry     beta= 0.70
     Davidson diagonalization with overlap
     ethr =  4.10E-03,  avg # of iterations = 10.0

     total cpu time spent up to now is       53.2 secs

     total energy              =    -913.48216772 Ry
     Harris-Foulkes estimate   =    -933.99373982 Ry
     estimated scf accuracy    <     101.18888112 Ry

     iteration #  3     ecut=    30.00 Ry     beta= 0.70
     Davidson diagonalization with overlap
     ethr =  4.10E-03,  avg # of iterations =  5.0

     total cpu time spent up to now is       54.0 secs

     total energy              =    -922.34793933 Ry
     Harris-Foulkes estimate   =    -922.86659134 Ry
     estimated scf accuracy    <       1.33610861 Ry

     iteration #  4     ecut=    30.00 Ry     beta= 0.70
     Davidson diagonalization with overlap
     ethr =  1.19E-03,  avg # of iterations =  2.0

     total cpu time spent up to now is       54.3 secs

     total energy              =    -922.33692411 Ry
     Harris-Foulkes estimate   =    -922.42914526 Ry
     estimated scf accuracy    <       0.33202961 Ry

     iteration #  5     ecut=    30.00 Ry     beta= 0.70
     Davidson diagonalization with overlap
     ethr =  2.96E-04,  avg # of iterations =  3.2

     total cpu time spent up to now is       54.6 secs

     total energy              =    -922.33419998 Ry
     Harris-Foulkes estimate   =    -922.35973513 Ry
     estimated scf accuracy    <       0.17447187 Ry

     iteration #  6     ecut=    30.00 Ry     beta= 0.70
     Davidson diagonalization with overlap
     ethr =  1.56E-04,  avg # of iterations =  2.8

     total cpu time spent up to now is       54.9 secs

     total energy              =    -922.28896655 Ry
     Harris-Foulkes estimate   =    -922.33994225 Ry
     estimated scf accuracy    <       0.14287206 Ry

     iteration #  7     ecut=    30.00 Ry     beta= 0.70
     Davidson diagonalization with overlap
     ethr =  1.28E-04,  avg # of iterations =  2.5

     total cpu time spent up to now is       55.2 secs

     total energy              =    -922.28557776 Ry
     Harris-Foulkes estimate   =    -922.29732230 Ry
     estimated scf accuracy    <       0.04748435 Ry

     iteration #  8     ecut=    30.00 Ry     beta= 0.70
     Davidson diagonalization with overlap
     ethr =  4.24E-05,  avg # of iterations =  3.5

     total cpu time spent up to now is       55.6 secs

     total energy              =    -922.28951466 Ry
     Harris-Foulkes estimate   =    -922.29132885 Ry
     estimated scf accuracy    <       0.01155038 Ry

     iteration #  9     ecut=    30.00 Ry     beta= 0.70
     Davidson diagonalization with overlap
     ethr =  1.03E-05,  avg # of iterations =  3.2

     total cpu time spent up to now is       55.9 secs

     total energy              =    -922.28961490 Ry
     Harris-Foulkes estimate   =    -922.29037368 Ry
     estimated scf accuracy    <       0.00590628 Ry

     iteration # 10     ecut=    30.00 Ry     beta= 0.70
     Davidson diagonalization with overlap
     ethr =  5.27E-06,  avg # of iterations =  2.5

     total cpu time spent up to now is       56.2 secs

     total energy              =    -922.28921822 Ry
     Harris-Foulkes estimate   =    -922.28986495 Ry
     estimated scf accuracy    <       0.00319375 Ry

     iteration # 11     ecut=    30.00 Ry     beta= 0.70
     Davidson diagonalization with overlap
     ethr =  2.85E-06,  avg # of iterations =  3.2

     total cpu time spent up to now is       56.6 secs

     total energy              =    -922.28952140 Ry
     Harris-Foulkes estimate   =    -922.28961032 Ry
     estimated scf accuracy    <       0.00035293 Ry

     iteration # 12     ecut=    30.00 Ry     beta= 0.70
     Davidson diagonalization with overlap
     ethr =  3.15E-07,  avg # of iterations =  4.0

     total cpu time spent up to now is       57.0 secs

     total energy              =    -922.28961254 Ry
     Harris-Foulkes estimate   =    -922.28962323 Ry
     estimated scf accuracy    <       0.00002169 Ry

     iteration # 13     ecut=    30.00 Ry     beta= 0.70
     Davidson diagonalization with overlap
     ethr =  1.94E-08,  avg # of iterations =  4.8

     total cpu time spent up to now is       57.6 secs

     total energy              =    -922.28962120 Ry
     Harris-Foulkes estimate   =    -922.28962577 Ry
     estimated scf accuracy    <       0.00001458 Ry

     iteration # 14     ecut=    30.00 Ry     beta= 0.70
     Davidson diagonalization with overlap
     ethr =  1.30E-08,  avg # of iterations =  4.0

     total cpu time spent up to now is       58.0 secs

     total energy              =    -922.28962269 Ry
     Harris-Foulkes estimate   =    -922.28962319 Ry
     estimated scf accuracy    <       0.00000143 Ry

     iteration # 15     ecut=    30.00 Ry     beta= 0.70
     Davidson diagonalization with overlap
     ethr =  1.28E-09,  avg # of iterations =  4.0

     total cpu time spent up to now is       58.6 secs

     total energy              =    -922.28962266 Ry
     Harris-Foulkes estimate   =    -922.28962351 Ry
     estimated scf accuracy    <       0.00000332 Ry

     iteration # 16     ecut=    30.00 Ry     beta= 0.70
     Davidson diagonalization with overlap
     ethr =  1.28E-09,  avg # of iterations =  4.0

     total cpu time spent up to now is       59.1 secs

     total energy              =    -922.28962292 Ry
     Harris-Foulkes estimate   =    -922.28962297 Ry
     estimated scf accuracy    <       0.00000022 Ry

     iteration # 17     ecut=    30.00 Ry     beta= 0.70
     Davidson diagonalization with overlap
     ethr =  1.99E-10,  avg # of iterations =  3.8

     total cpu time spent up to now is       59.4 secs

     total energy              =    -922.28962293 Ry
     Harris-Foulkes estimate   =    -922.28962294 Ry
     estimated scf accuracy    <       0.00000005 Ry

     iteration # 18     ecut=    30.00 Ry     beta= 0.70
     Davidson diagonalization with overlap
     ethr =  4.45E-11,  avg # of iterations =  4.2

     total cpu time spent up to now is       59.9 secs

     total energy              =    -922.28962294 Ry
     Harris-Foulkes estimate   =    -922.28962294 Ry
     estimated scf accuracy    <          4.1E-09 Ry

     iteration # 19     ecut=    30.00 Ry     beta= 0.70
     Davidson diagonalization with overlap
     ethr =  3.69E-12,  avg # of iterations =  3.8

     total cpu time spent up to now is       60.3 secs

     total energy              =    -922.28962294 Ry
     Harris-Foulkes estimate   =    -922.28962294 Ry
     estimated scf accuracy    <          1.1E-09 Ry

     iteration # 20     ecut=    30.00 Ry     beta= 0.70
     Davidson diagonalization with overlap
     ethr =  9.71E-13,  avg # of iterations =  4.0

     total cpu time spent up to now is       60.9 secs

     total energy              =    -922.28962294 Ry
     Harris-Foulkes estimate   =    -922.28962294 Ry
     estimated scf accuracy    <          1.1E-09 Ry

     iteration # 21     ecut=    30.00 Ry     beta= 0.70
     Davidson diagonalization with overlap
     ethr =  9.47E-13,  avg # of iterations =  3.2

     total cpu time spent up to now is       61.2 secs

     total energy              =    -922.28962294 Ry
     Harris-Foulkes estimate   =    -922.28962294 Ry
     estimated scf accuracy    <          2.6E-10 Ry

     iteration # 22     ecut=    30.00 Ry     beta= 0.70
     Davidson diagonalization with overlap
     ethr =  2.32E-13,  avg # of iterations =  4.0

     total cpu time spent up to now is       61.7 secs

     End of self-consistent calculation

          k = 0.0000 0.0000 0.0000 (  3667 PWs)   bands (ev):

   -53.8281 -53.8040 -53.7518 -53.7148 -28.5395 -28.3683 -28.2798 -28.2517
   -28.2481 -28.1603 -28.1325 -28.0925 -28.0614 -28.0475 -27.9768 -27.8725
    -9.3054  -8.9832  -8.1402  -8.0840  -7.0938  -6.6754  -5.9320  -5.7337
    -5.6464  -5.4241   4.2656   4.4942   4.7897   4.8296   5.2796   5.8171
     5.8512   6.2625   6.9277   7.0167   7.3833   7.5548   7.6956   7.7043
     8.1803   8.2294   8.5232   8.6210   8.8055   8.8093   9.0720   9.1799
     9.2672   9.9472  10.0189  10.0486  10.1602  10.2086  10.2648  10.4704

          k = 0.0000 0.3233 0.0000 (  3646 PWs)   bands (ev):

   -53.8054 -53.8022 -53.7463 -53.7180 -28.5378 -28.3728 -28.3027 -28.2612
   -28.2452 -28.1928 -28.1554 -28.1139 -28.0602 -28.0498 -27.9930 -27.8729
    -9.0668  -8.7927  -8.0589  -8.0144  -6.8946  -6.5509  -5.6051  -5.5930
    -5.0998  -5.0761   4.1239   4.3103   4.3568   4.5272   4.5988   4.6486
     5.2897   5.2926   5.3763   5.6031   6.2542   6.5881   7.0876   7.5745
     7.9986   8.1650   8.2294   8.2659   8.5541   8.8870   9.3351   9.5963
     9.9270  10.1652  10.3168  10.4609  10.5446  10.6006  10.7969  11.2855

          k = 0.3802 0.0000 0.0000 (  3672 PWs)   bands (ev):

   -53.7880 -53.7789 -53.7596 -53.7468 -28.5899 -28.5382 -28.4934 -28.4869
   -28.2185 -28.2008 -28.1259 -28.1000 -28.0691 -28.0357 -27.9936 -27.9017
    -8.2493  -7.8414  -7.3693  -7.2124  -6.9310  -6.4979  -5.7938  -5.7383
    -5.6038  -5.4257   3.6857   3.9396   3.9993   4.7480   5.0766   5.2489
     5.2794   5.5371   6.3445   6.4576   6.6436   7.3372   7.5924   7.7596
     7.9880   8.0208   8.3184   8.3351   8.3395   8.5070   8.9383   9.3503
     9.6244   9.6270   9.7077  10.0758  10.2812  10.3424  10.4733  10.6189

          k = 0.3802 0.3233 0.0000 (  3663 PWs)   bands (ev):

   -53.7971 -53.7725 -53.7547 -53.7363 -28.5870 -28.5336 -28.4964 -28.4804
   -28.2409 -28.2151 -28.1574 -28.1205 -28.0840 -28.0389 -28.0053 -27.9082
    -8.0411  -7.7047  -7.3481  -7.1961  -6.6787  -6.3909  -5.3841  -5.3615
    -5.1231  -5.1170   3.6461   3.8283   3.8590   4.2681   4.4699   4.6928
     4.7572   5.1198   5.2734   5.3655   5.6342   6.1010   6.4182   6.9805
     7.2683   7.3749   7.6534   7.7485   8.2847   8.8385   9.3298   9.8888
     9.9644  10.1881  10.1984  10.4453  10.4908  10.7061  11.0310  11.1936

     highest occupied level (ev):    11.2855

!    total energy              =    -922.28962294 Ry
     Harris-Foulkes estimate   =    -922.28962294 Ry
     estimated scf accuracy    <          9.0E-11 Ry

     The total energy is the sum of the following terms:

     one-electron contribution =    -394.69992794 Ry
     hartree contribution      =     263.63483242 Ry
     xc contribution           =    -181.18848324 Ry
     ewald contribution        =    -610.03604418 Ry

     convergence has been achieved in  22 iterations

     Forces acting on atoms (cartesian axes, Ry/au):

     atom    1 type  1   force =    -0.00000000   -0.14109076    0.03174045
     atom    2 type  1   force =    -0.00000000    0.14109076   -0.03174045
     atom    3 type  1   force =     0.00000000    0.14109076    0.03174045
     atom    4 type  1   force =     0.00000000   -0.14109076   -0.03174045
     atom    5 type  2   force =    -0.00000000    0.08966073   -0.02464223
     atom    6 type  2   force =     0.00000000   -0.08966073    0.02464223
     atom    7 type  2   force =     0.00000000   -0.08966073   -0.02464223
     atom    8 type  2   force =    -0.00000000    0.08966073    0.02464223
     atom    9 type  2   force =     0.00000000   -0.06258905   -0.00792060
     atom   10 type  2   force =     0.00000000    0.06258905    0.00792060
     atom   11 type  2   force =     0.00000000    0.06258905   -0.00792060
     atom   12 type  2   force =    -0.00000000   -0.10783013    0.00000000
     atom   13 type  2   force =     0.00000000    0.10783013    0.00000000
     atom   14 type  2   force =     0.00000000   -0.06258905    0.00792060

     Total force =     0.396758     Total SCF correction =     0.000018


     Computing stress (Cartesian axis) and pressure

          total   stress  (Ry/bohr**3)                   (kbar)     P= -181.36
  -0.00165758   0.00000000   0.00000000       -243.84      0.00      0.00
   0.00000000  -0.00091763   0.00000000          0.00   -134.99      0.00
   0.00000000   0.00000000  -0.00112329          0.00      0.00   -165.24


     number of scf cycles    =   5
     number of bfgs steps    =   4

     enthalpy old            =    -921.9799084043 Ry
     enthalpy new            =    -922.2896229441 Ry

     CASE: enthalpy_new < enthalpy_old

     new trust radius        =       0.1051755129 bohr
     new conv_thr            =            1.0E-10 Ry

     new unit-cell volume =    767.78002 a.u.^3 (   113.77326 Ang^3 )
     density =      5.30914 g/cm^3

CELL_PARAMETERS (alat=  6.76758343)
   0.864829940   0.000000000   0.000000000
   0.000000000   1.036331212   0.000000000
   0.000000000   0.000000000   2.763800281

ATOMIC_POSITIONS (crystal)
V       -0.000000000   0.379817549   0.650683182
V        0.500000215   0.620182880   0.849317464
V        0.500000215   0.620182880   0.150682967
V        0.000000000   0.379817549   0.349317249
O        0.500000215   0.531768967   0.671125256
O        0.000000000   0.468231463   0.828875391
O        0.000000000   0.468231463   0.171125040
O        0.500000215   0.531768967   0.328875175
O       -0.000000000  -0.039264990   0.356823603
O        0.500000215   1.039265420   0.143176612
O        0.500000215   1.039265420   0.856823819
O        0.500000215   0.439408116  -0.000000000
O        0.000000000   0.560592314   0.500000215
O       -0.000000000  -0.039264990   0.643176827



     Writing output data file v2o5.save/
     NEW-OLD atomic charge density approx. for the potential

     Check: negative core charge=   -0.000567
     extrapolated charge  110.13607, renormalised to  112.00000

     total cpu time spent up to now is       62.3 secs

     Self-consistent Calculation

     iteration #  1     ecut=    30.00 Ry     beta= 0.70
     Davidson diagonalization with overlap
     ethr =  1.00E-06,  avg # of iterations = 12.8

     total cpu time spent up to now is       63.8 secs

     total energy              =    -921.89712247 Ry
     Harris-Foulkes estimate   =    -927.81246766 Ry
     estimated scf accuracy    <       0.49657774 Ry

[...]
     atom    8 type  2   force =    -0.00000000   -0.00006892    0.00007013
     atom    9 type  2   force =     0.00000000   -0.00014440    0.00002517
     atom   10 type  2   force =     0.00000000    0.00014440   -0.00002517
     atom   11 type  2   force =     0.00000000    0.00014440    0.00002517
     atom   12 type  2   force =     0.00000000    0.00002639    0.00000000
     atom   13 type  2   force =     0.00000000   -0.00002639    0.00000000
     atom   14 type  2   force =     0.00000000   -0.00014440   -0.00002517

     Total force =     0.000450     Total SCF correction =     0.000004


     Computing stress (Cartesian axis) and pressure

          total   stress  (Ry/bohr**3)                   (kbar)     P=    0.19
  -0.00000035   0.00000000   0.00000000         -0.05      0.00      0.00
   0.00000000   0.00000297   0.00000000          0.00      0.44      0.00
   0.00000000   0.00000000   0.00000130          0.00      0.00      0.19


     bfgs converged in  51 scf cycles and  48 bfgs steps
     (criteria: energy <  1.0E-04 Ry, force <  1.0E-03Ry/Bohr, cell <  5.0E-01kbar)

     End of BFGS Geometry Optimization

     Final enthalpy =    -923.5198568991 Ry
Begin final coordinates
     new unit-cell volume =    646.46829 a.u.^3 (    95.79672 Ang^3 )
     density =      6.30541 g/cm^3

CELL_PARAMETERS (alat=  6.76758343)
   0.767227585   0.000000000   0.000000000
   0.000000000   1.003589133   0.000000000
   0.000000000   0.000000000   2.708733067

ATOMIC_POSITIONS (crystal)
V       -0.000000000   0.249123954   0.650831720
V        0.500000283   0.750876610   0.849169127
V        0.500000283   0.750876610   0.150831438
V       -0.000000000   0.249123954   0.349168845
O        0.500000283   0.537480591   0.571206377
O       -0.000000000   0.462519974   0.928794472
O        0.000000000   0.462519974   0.071206093
O        0.500000283   0.537480591   0.428794189
O       -0.000000000  -0.238378596   0.275718181
O        0.500000283   1.238379162   0.224282102
O        0.500000283   1.238379162   0.775718463
O        0.500000283   0.983730307   0.000000000
O        0.000000000   0.016270258   0.500000283
O       -0.000000000  -0.238378596   0.724282385
End final coordinates



     Writing output data file v2o5.save/

     A final scf calculation at the relaxed structure.
     The G-vectors are recalculated for the final unit cell
     Results may differ from those at the preceding step.

     Parallelization info
     --------------------
     sticks:   dense  smooth     PW     G-vecs:    dense   smooth      PW
     Min          10      10      3                  444      444      65
     Max          11      11      4                  455      455      77
     Sum         333     333     97                14319    14319    2319



     bravais-lattice index     =            8
     lattice parameter (alat)  =       6.7676  a.u.
     unit-cell volume          =     646.4683 (a.u.)^3
     number of atoms/cell      =           14
     number of atomic types    =            2
     number of electrons       =       112.00
     number of Kohn-Sham states=           56
     kinetic-energy cutoff     =      30.0000  Ry
     charge density cutoff     =     120.0000  Ry
     convergence threshold     =      1.0E-12
     mixing beta               =       0.7000
     number of iterations used =            8  plain     mixing
     Exchange-correlation      = VDW-DF ( 1  4  4  0 1 0)

     celldm(1)=   6.767583  celldm(2)=   1.308375  celldm(3)=   3.255230
     celldm(4)=   0.000000  celldm(5)=   0.000000  celldm(6)=   0.000000

     crystal axes: (cart. coord. in units of alat)
               a(1) = (   0.767228   0.000000   0.000000 )  
               a(2) = (   0.000000   1.003589   0.000000 )  
               a(3) = (   0.000000   0.000000   2.708733 )  

     reciprocal axes: (cart. coord. in units 2 pi/alat)
               b(1) = (  1.303394  0.000000  0.000000 )  
               b(2) = (  0.000000  0.996424  0.000000 )  
               b(3) = (  0.000000  0.000000  0.369176 )  


     PseudoPot. # 1 for V  read from file:
     /home/mpicuntureo/pseudos/v.nc.upf
     MD5 check sum: 40fb93c06b4f9d8c28c5ccd071294a04
     Pseudo is Norm-conserving + core correction, Zval = 13.0
     Generated using ONCVPSP code by D. R. Hamann
     Using radial grid of 1536 points,  6 beta functions with: 
                l(1) =   0
                l(2) =   0
                l(3) =   1
                l(4) =   1
                l(5) =   2
                l(6) =   2

     PseudoPot. # 2 for O  read from file:
     /home/mpicuntureo/pseudos/o.nc.upf
     MD5 check sum: 3e3f909f7470e8921608ab6b1f57bbae
     Pseudo is Norm-conserving + core correction, Zval =  6.0
     Generated using ONCVPSP code by D. R. Hamann
     Using radial grid of  936 points,  5 beta functions with: 
                l(1) =   0
                l(2) =   0
                l(3) =   1
                l(4) =   1
                l(5) =   2

     vdW kernel table read from file vdW_kernel_table
     MD5 check sum: 8c4337f4b28e1601c069d7ef7b6561bc

     atomic species   valence    mass     pseudopotential
        V             13.00    50.94150     V ( 1.00)
        O              6.00    15.99940     O ( 1.00)

      8 Sym. Ops., with inversion, found ( 4 have fractional translation)



   Cartesian axes

     site n.     atom                  positions (alat units)
         1           V   tau(   1) = (  -0.0000000   0.2500181   1.7629294  )
         2           V   tau(   2) = (   0.3836140   0.7535716   2.3001725  )
         3           V   tau(   3) = (   0.3836140   0.7535716   0.4085621  )
         4           V   tau(   4) = (  -0.0000000   0.2500181   0.9458052  )
         5           O   tau(   5) = (   0.3836140   0.5394097   1.5472456  )
         6           O   tau(   6) = (  -0.0000000   0.4641800   2.5158563  )
         7           O   tau(   7) = (   0.0000000   0.4641800   0.1928783  )
         8           O   tau(   8) = (   0.3836140   0.5394097   1.1614890  )
         9           O   tau(   9) = (  -0.0000000  -0.2392342   0.7468470  )
        10           O   tau(  10) = (   0.3836140   1.2428239   0.6075203  )
        11           O   tau(  11) = (   0.3836140   1.2428239   2.1012143  )
        12           O   tau(  12) = (   0.3836140   0.9872610   0.0000000  )
        13           O   tau(  13) = (   0.0000000   0.0163287   1.3543673  )
        14           O   tau(  14) = (  -0.0000000  -0.2392342   1.9618876  )

     number of k points=     4
                       cart. coord. in units 2pi/alat
        k(    1) = (   0.0000000   0.0000000   0.0000000), wk =   0.2222222
        k(    2) = (   0.0000000   0.3321412   0.0000000), wk =   0.4444444
        k(    3) = (   0.4344647   0.0000000   0.0000000), wk =   0.4444444
        k(    4) = (   0.4344647   0.3321412   0.0000000), wk =   0.8888889

     Dense  grid:    14319 G-vectors     FFT dimensions: (  20,  24,  64)

     Estimated max dynamical RAM per process >       5.18 MB

     Estimated total dynamical RAM >     165.83 MB

     Check: negative core charge=   -0.002762

     Initial potential from superposition of free atoms

     starting charge  111.99579, renormalised to  112.00000
     Starting wfcs are   80 randomized atomic wfcs

     total cpu time spent up to now is      430.4 secs

     Self-consistent Calculation

     iteration #  1     ecut=    30.00 Ry     beta= 0.70
     Davidson diagonalization with overlap
     ethr =  1.00E-06,  avg # of iterations = 11.8

     total cpu time spent up to now is      431.3 secs

     total energy              =    -911.70295963 Ry
     Harris-Foulkes estimate   =    -915.69163481 Ry
     estimated scf accuracy    <       5.33557813 Ry

     iteration #  2     ecut=    30.00 Ry     beta= 0.70
     Davidson diagonalization with overlap
     ethr =  4.76E-03,  avg # of iterations =  4.8

     total cpu time spent up to now is      431.7 secs

     total energy              =    -908.42289188 Ry
     Harris-Foulkes estimate   =    -917.71937535 Ry
     estimated scf accuracy    <      27.72481854 Ry

     iteration #  3     ecut=    30.00 Ry     beta= 0.70
     Davidson diagonalization with overlap
     ethr =  4.76E-03,  avg # of iterations =  5.2

     total cpu time spent up to now is      432.0 secs

     total energy              =    -914.00973411 Ry
     Harris-Foulkes estimate   =    -914.53697143 Ry
     estimated scf accuracy    <       1.72339101 Ry

     iteration #  4     ecut=    30.00 Ry     beta= 0.70
     Davidson diagonalization with overlap
     ethr =  1.54E-03,  avg # of iterations =  3.5

     total cpu time spent up to now is      432.2 secs

     total energy              =    -914.12799669 Ry
     Harris-Foulkes estimate   =    -914.22720484 Ry
     estimated scf accuracy    <       0.30512412 Ry

     iteration #  5     ecut=    30.00 Ry     beta= 0.70
     Davidson diagonalization with overlap
     ethr =  2.72E-04,  avg # of iterations =  4.0

     total cpu time spent up to now is      432.4 secs

     total energy              =    -914.14911845 Ry
     Harris-Foulkes estimate   =    -914.16387019 Ry
     estimated scf accuracy    <       0.04888530 Ry

     iteration #  6     ecut=    30.00 Ry     beta= 0.70
     Davidson diagonalization with overlap
     ethr =  4.36E-05,  avg # of iterations =  4.2

     total cpu time spent up to now is      432.7 secs

     total energy              =    -914.16447608 Ry
     Harris-Foulkes estimate   =    -914.16564539 Ry
     estimated scf accuracy    <       0.00328611 Ry

     iteration #  7     ecut=    30.00 Ry     beta= 0.70
     Davidson diagonalization with overlap
     ethr =  2.93E-06,  avg # of iterations =  4.8

     total cpu time spent up to now is      433.0 secs

     total energy              =    -914.16488167 Ry
     Harris-Foulkes estimate   =    -914.16533313 Ry
     estimated scf accuracy    <       0.00191245 Ry

     iteration #  8     ecut=    30.00 Ry     beta= 0.70
     Davidson diagonalization with overlap
     ethr =  1.71E-06,  avg # of iterations =  3.5

     total cpu time spent up to now is      433.2 secs

     total energy              =    -914.16487652 Ry
     Harris-Foulkes estimate   =    -914.16501132 Ry
     estimated scf accuracy    <       0.00048336 Ry

     iteration #  9     ecut=    30.00 Ry     beta= 0.70
     Davidson diagonalization with overlap
     ethr =  4.32E-07,  avg # of iterations =  4.2

     total cpu time spent up to now is      433.4 secs

     total energy              =    -914.16499241 Ry
     Harris-Foulkes estimate   =    -914.16499369 Ry
     estimated scf accuracy    <       0.00000356 Ry

     iteration # 10     ecut=    30.00 Ry     beta= 0.70
     Davidson diagonalization with overlap
     ethr =  3.18E-09,  avg # of iterations =  5.5

     total cpu time spent up to now is      433.7 secs

     total energy              =    -914.16499487 Ry
     Harris-Foulkes estimate   =    -914.16499488 Ry
     estimated scf accuracy    <       0.00000020 Ry

     iteration # 11     ecut=    30.00 Ry     beta= 0.70
     Davidson diagonalization with overlap
     ethr =  1.80E-10,  avg # of iterations =  4.5

     total cpu time spent up to now is      434.0 secs

     total energy              =    -914.16499492 Ry
     Harris-Foulkes estimate   =    -914.16499494 Ry
     estimated scf accuracy    <       0.00000004 Ry

     iteration # 12     ecut=    30.00 Ry     beta= 0.70
     Davidson diagonalization with overlap
     ethr =  3.93E-11,  avg # of iterations =  5.5

     total cpu time spent up to now is      434.3 secs

     total energy              =    -914.16499493 Ry
     Harris-Foulkes estimate   =    -914.16499493 Ry
     estimated scf accuracy    <          8.4E-10 Ry

     iteration # 13     ecut=    30.00 Ry     beta= 0.70
     Davidson diagonalization with overlap
     ethr =  7.49E-13,  avg # of iterations =  4.8

     total cpu time spent up to now is      434.7 secs

     total energy              =    -914.16499493 Ry
     Harris-Foulkes estimate   =    -914.16499493 Ry
     estimated scf accuracy    <          5.8E-10 Ry

     iteration # 14     ecut=    30.00 Ry     beta= 0.70
     Davidson diagonalization with overlap
     ethr =  5.15E-13,  avg # of iterations =  3.2

     total cpu time spent up to now is      434.9 secs

     total energy              =    -914.16499493 Ry
     Harris-Foulkes estimate   =    -914.16499493 Ry
     estimated scf accuracy    <          3.6E-11 Ry

     iteration # 15     ecut=    30.00 Ry     beta= 0.70
     Davidson diagonalization with overlap
     ethr =  1.00E-13,  avg # of iterations =  3.5

     total cpu time spent up to now is      435.1 secs

     total energy              =    -914.16499493 Ry
     Harris-Foulkes estimate   =    -914.16499493 Ry
     estimated scf accuracy    <          1.4E-12 Ry

     iteration # 16     ecut=    30.00 Ry     beta= 0.70
     Davidson diagonalization with overlap
     ethr =  1.00E-13,  avg # of iterations =  1.0

     total cpu time spent up to now is      435.2 secs

     End of self-consistent calculation

          k = 0.0000 0.0000 0.0000 (  1797 PWs)   bands (ev):

   -50.8381 -50.7689 -50.6957 -50.6748 -25.5457 -25.5430 -25.4359 -25.4137
   -25.2709 -25.2445 -25.2257 -25.1830 -25.1763 -25.0816 -25.0265 -24.9579
    -8.4011  -8.1077  -5.6407  -4.8838  -3.2920  -3.2583  -2.3986  -2.3170
    -1.0204  -0.0957   7.0935   7.7814   8.5075   8.6339   9.7933   9.8211
    10.1516  10.3877  10.5661  10.8469  11.0637  11.2670  12.5884  12.6190
    12.8665  13.0896  13.6945  14.2794  14.3958  15.0563  15.0693  15.2280
    15.3626  15.5116  15.6553  15.7208  15.8090  16.9845  18.7403  19.1859

          k = 0.0000 0.3321 0.0000 (  1802 PWs)   bands (ev):

   -50.8106 -50.7798 -50.7398 -50.6790 -25.5882 -25.5502 -25.5105 -25.4079
   -25.3034 -25.2289 -25.1732 -25.1660 -25.1562 -25.0735 -25.0441 -24.9928
    -8.1420  -7.9772  -4.9798  -4.5832  -3.7472  -3.6093  -2.6446  -2.5426
    -1.0107  -0.0833   7.3301   8.2173   9.1292   9.1883   9.8710  10.0375
    10.3921  10.7743  10.8741  11.0718  11.2914  11.4857  12.1521  12.5019
    12.5658  12.8479  13.1473  13.4175  13.5010  13.7954  14.1959  14.3310
    14.9171  14.9826  15.4214  15.4751  15.8328  17.0602  18.7305  19.3996

          k = 0.4345 0.0000 0.0000 (  1773 PWs)   bands (ev):

   -50.6910 -50.6796 -50.6494 -50.6119 -25.5136 -25.4168 -25.3851 -25.3311
   -25.3240 -25.3070 -25.2843 -25.2550 -25.1987 -25.1929 -25.1834 -25.1617
    -7.8181  -7.7819  -4.7094  -4.6179  -3.5799  -3.5712  -2.2967  -2.2352
    -0.7539  -0.5194   7.4564   7.8271   9.0866   9.4414   9.4748   9.5872
     9.6619  10.0761  10.6152  10.6350  11.2974  11.6776  11.9574  12.1623
    12.5050  12.6844  12.9216  13.3666  13.5310  13.7611  13.8423  14.0808
    14.7564  14.9983  15.1808  15.5197  15.7222  16.7381  18.7297  19.2211

          k = 0.4345 0.3321 0.0000 (  1791 PWs)   bands (ev):

   -50.7267 -50.7073 -50.6983 -50.6382 -25.5610 -25.4299 -25.4265 -25.4044
   -25.3776 -25.3276 -25.3226 -25.2586 -25.2324 -25.2236 -25.2001 -25.1667
    -7.7449  -7.7227  -4.2507  -4.2024  -3.6433  -3.6009  -2.4097  -2.3386
    -0.7677  -0.6145   7.3648   7.6764   8.3290   8.5752   8.8951   9.2268
     9.5600   9.9929  10.2665  10.8873  10.9238  11.6426  12.1833  12.3449
    12.5486  12.9254  13.3314  13.4887  13.5250  13.8543  14.5884  14.7461
    15.0807  15.2706  15.2732  15.7580  15.7727  16.1994  19.3374  19.4584

     highest occupied level (ev):    19.4584

!    total energy              =    -914.16499493 Ry
     Harris-Foulkes estimate   =    -914.16499493 Ry
     estimated scf accuracy    <          1.2E-13 Ry

     The total energy is the sum of the following terms:

     one-electron contribution =    -154.98767898 Ry
     hartree contribution      =     158.51722107 Ry
     xc contribution           =    -178.63634338 Ry
     ewald contribution        =    -739.05819363 Ry

     convergence has been achieved in  16 iterations

     Forces acting on atoms (cartesian axes, Ry/au):

     atom    1 type  1   force =    -0.00000000   -0.04561134   -0.13130800
     atom    2 type  1   force =     0.00000000    0.04561134    0.13130800
     atom    3 type  1   force =     0.00000000    0.04561134   -0.13130800
     atom    4 type  1   force =     0.00000000   -0.04561134    0.13130800
     atom    5 type  2   force =     0.00000000    0.03563520   -0.07969399
     atom    6 type  2   force =     0.00000000   -0.03563520    0.07969399
     atom    7 type  2   force =     0.00000000   -0.03563520   -0.07969399
     atom    8 type  2   force =     0.00000000    0.03563520    0.07969399
     atom    9 type  2   force =     0.00000000   -0.00528902    0.08432389
     atom   10 type  2   force =     0.00000000    0.00528902   -0.08432389
     atom   11 type  2   force =    -0.00000000    0.00528902    0.08432389
     atom   12 type  2   force =     0.00000000    0.02878212   -0.00000000
     atom   13 type  2   force =     0.00000000   -0.02878212    0.00000000
     atom   14 type  2   force =     0.00000000   -0.00528902   -0.08432389

     Total force =     0.371461     Total SCF correction =     0.000001


     Computing stress (Cartesian axis) and pressure

          total   stress  (Ry/bohr**3)                   (kbar)     P=-3624.70
  -0.02578481   0.00000000   0.00000000      -3793.08      0.00      0.00
   0.00000000  -0.02630418   0.00000000          0.00  -3869.48      0.00
   0.00000000   0.00000000  -0.02183159          0.00      0.00  -3211.54


     Writing output data file v2o5.save/

     init_run     :      0.34s CPU      0.37s WALL (       2 calls)
     electrons    :    399.31s CPU    408.76s WALL (      52 calls)
     update_pot   :      6.88s CPU      6.92s WALL (      50 calls)
     forces       :      6.49s CPU      6.68s WALL (      52 calls)
     stress       :     11.08s CPU     11.16s WALL (      52 calls)

     Called by init_run:
     wfcinit      :      0.17s CPU      0.18s WALL (       2 calls)
     potinit      :      0.05s CPU      0.06s WALL (       2 calls)
     hinit0       :      0.11s CPU      0.11s WALL (       2 calls)

     Called by electrons:
     c_bands      :    374.90s CPU    383.67s WALL (     967 calls)
     sum_band     :     14.06s CPU     14.39s WALL (     967 calls)
     v_of_rho     :      9.69s CPU      9.84s WALL (    1013 calls)
     mix_rho      :      0.87s CPU      0.89s WALL (     967 calls)

     Called by c_bands:
     init_us_2    :      1.08s CPU      1.11s WALL (    8160 calls)
     cegterg      :    369.96s CPU    378.55s WALL (    3868 calls)

     Called by sum_band:

     Called by *egterg:
     h_psi        :    139.08s CPU    143.58s WALL (   19942 calls)
     g_psi        :      0.42s CPU      0.42s WALL (   16066 calls)
     cdiaghg      :    154.96s CPU    158.31s WALL (   19710 calls)

     Called by h_psi:
     h_psi:pot    :    138.83s CPU    143.33s WALL (   19942 calls)
     h_psi:calbec :     34.34s CPU     36.43s WALL (   19942 calls)
     vloc_psi     :     79.96s CPU     81.87s WALL (   19942 calls)
     add_vuspsi   :     24.48s CPU     24.99s WALL (   19942 calls)

     General routines
     calbec       :     37.36s CPU     39.66s WALL (   20982 calls)
     fft          :      6.09s CPU      6.17s WALL (   69572 calls)
     ffts         :      0.08s CPU      0.08s WALL (     967 calls)
     fftw         :     88.20s CPU     90.32s WALL ( 1539844 calls)

     Parallel routines
     fft_scatt_xy :      4.39s CPU      4.47s WALL ( 1610383 calls)
     fft_scatt_yz :     70.03s CPU     71.75s WALL ( 1610383 calls)

     PWSCF        :   7m 5.49s CPU   7m15.50s WALL


   This run was terminated on:  22:56:26  18May2024            

=------------------------------------------------------------------------------=
   JOB DONE.
=------------------------------------------------------------------------------=
