
     Program PWSCF v.6.4.1 starts on 10Mar2024 at 19:53:55 

     This program is part of the open-source Quantum ESPRESSO suite
     for quantum simulation of materials; please cite
         "P. Giannozzi et al., J. Phys.:Condens. Matter 21 395502 (2009);
         "P. Giannozzi et al., J. Phys.:Condens. Matter 29 465901 (2017);
          URL http://www.quantum-espresso.org", 
     in publications or presentations arising from this work. More details at
     http://www.quantum-espresso.org/quote

     Parallel version (MPI), running on    16 processors

     MPI processes distributed on     1 nodes
     R & G space division:  proc/nbgrp/npool/nimage =      16
     Reading input from graph_sc.rlx.in

     Current dimensions of program PWSCF are:
     Max number of different atomic species (ntypx) = 10
     Max number of k-points (npk) =  40000
     Max angular momentum in pseudopotentials (lmaxx) =  3

     IMPORTANT: XC functional enforced from input :
     Exchange-correlation      = VDW-DF ( 1  4  4  0 1 0)
     Any further DFT definition will be discarded
     Please, verify this is what you really want

               file C.pbesol-n-kjpaw_psl.1.0.0.UPF: wavefunction(s)  2S 2P renormalized

     Subspace diagonalization in iterative solution of the eigenvalue problem:
     one sub-group per band group will be used
     ELPA distributed-memory algorithm (size of sub-group:  2*  2 procs)

     Found symmetry operation: I + (  0.0000  0.3333  0.0000)
     This is a supercell, fractional translations are disabled
     Message from routine setup:
     DEPRECATED: symmetry with ibrav=0, use correct ibrav instead

     Parallelization info
     --------------------
     sticks:   dense  smooth     PW     G-vecs:    dense   smooth      PW
     Min         339     135     37                18755     4751     699
     Max         341     136     38                18758     4754     702
     Sum        5437    2173    595               300083    76049   11193



     bravais-lattice index     =            0
     lattice parameter (alat)  =      14.0377  a.u.
     unit-cell volume          =    2220.8687 (a.u.)^3
     number of atoms/cell      =           36
     number of atomic types    =            1
     number of electrons       =       144.00
     number of Kohn-Sham states=           86
     kinetic-energy cutoff     =      40.0000  Ry
     charge density cutoff     =     400.0000  Ry
     convergence threshold     =      1.0E-06
     mixing beta               =       0.4000
     number of iterations used =            8  plain     mixing
     Exchange-correlation      = VDW-DF ( 1  4  4  0 1 0)
     nstep                     =          500


     celldm(1)=  14.037750  celldm(2)=   0.000000  celldm(3)=   0.000000
     celldm(4)=   0.000000  celldm(5)=   0.000000  celldm(6)=   0.000000

     crystal axes: (cart. coord. in units of alat)
               a(1) = (   1.000000   0.000000  -0.000000 )  
               a(2) = (  -0.500000   0.866025  -0.000000 )  
               a(3) = (   0.000000  -0.000000   0.927043 )  

     reciprocal axes: (cart. coord. in units 2 pi/alat)
               b(1) = (  1.000000  0.577350  0.000000 )  
               b(2) = (  0.000000  1.154701  0.000000 )  
               b(3) = (  0.000000  0.000000  1.078699 )  


     PseudoPot. # 1 for C  read from file:
     /home/mpicuntureo/pseudos/C.pbesol-n-kjpaw_psl.1.0.0.UPF
     MD5 check sum: f9b2fe17d1f478429498b05d17159f9e
     Pseudo is Projector augmented-wave + core cor, Zval =  4.0
     Generated using "atomic" code by A. Dal Corso v.6.3
     Shape of augmentation charge: PSQ
     Using radial grid of 1073 points,  4 beta functions with: 
                l(1) =   0
                l(2) =   0
                l(3) =   1
                l(4) =   1
     Q(r) pseudized with 0 coefficients 


     vdW kernel table read from file vdW_kernel_table
     MD5 check sum: 8c4337f4b28e1601c069d7ef7b6561bc

     atomic species   valence    mass     pseudopotential
        C              4.00    12.01100     C ( 1.00)

     12 Sym. Ops. (no inversion) found



   Cartesian axes

     site n.     atom                  positions (alat units)
         1           C   tau(   1) = (   0.0000000   0.0000000   0.0000000  )
         2           C   tau(   2) = (   0.0000000   0.1924501   0.0000000  )
         3           C   tau(   3) = (   0.0000000   0.0000000   0.4635214  )
         4           C   tau(   4) = (   0.1666667   0.0962250   0.4635214  )
         5           C   tau(   5) = (  -0.1666667   0.2886751   0.0000000  )
         6           C   tau(   6) = (  -0.1666667   0.4811252   0.0000000  )
         7           C   tau(   7) = (  -0.1666667   0.2886751   0.4635214  )
         8           C   tau(   8) = (   0.0000000   0.3849002   0.4635214  )
         9           C   tau(   9) = (  -0.3333333   0.5773503   0.0000000  )
        10           C   tau(  10) = (  -0.3333333   0.7698004   0.0000000  )
        11           C   tau(  11) = (  -0.3333333   0.5773503   0.4635214  )
        12           C   tau(  12) = (  -0.1666667   0.6735753   0.4635214  )
        13           C   tau(  13) = (   0.3333333   0.0000000   0.0000000  )
        14           C   tau(  14) = (   0.3333333   0.1924501   0.0000000  )
        15           C   tau(  15) = (   0.3333333   0.0000000   0.4635214  )
        16           C   tau(  16) = (   0.5000000   0.0962250   0.4635214  )
        17           C   tau(  17) = (   0.1666667   0.2886751   0.0000000  )
        18           C   tau(  18) = (   0.1666667   0.4811252   0.0000000  )
        19           C   tau(  19) = (   0.1666667   0.2886751   0.4635214  )
        20           C   tau(  20) = (   0.3333333   0.3849002   0.4635214  )
        21           C   tau(  21) = (   0.0000000   0.5773503   0.0000000  )
        22           C   tau(  22) = (   0.0000000   0.7698004   0.0000000  )
        23           C   tau(  23) = (   0.0000000   0.5773503   0.4635214  )
        24           C   tau(  24) = (   0.1666667   0.6735753   0.4635214  )
        25           C   tau(  25) = (   0.6666667   0.0000000   0.0000000  )
        26           C   tau(  26) = (   0.6666667   0.1924501   0.0000000  )
        27           C   tau(  27) = (   0.6666667   0.0000000   0.4635214  )
        28           C   tau(  28) = (   0.8333333   0.0962250   0.4635214  )
        29           C   tau(  29) = (   0.5000000   0.2886751   0.0000000  )
        30           C   tau(  30) = (   0.5000000   0.4811252   0.0000000  )
        31           C   tau(  31) = (   0.5000000   0.2886751   0.4635214  )
        32           C   tau(  32) = (   0.6666667   0.3849002   0.4635214  )
        33           C   tau(  33) = (   0.3333333   0.5773503   0.0000000  )
        34           C   tau(  34) = (   0.3333333   0.7698004   0.0000000  )
        35           C   tau(  35) = (   0.3333333   0.5773503   0.4635214  )
        36           C   tau(  36) = (   0.5000000   0.6735753   0.4635214  )

     number of k points=     4  gaussian smearing, width (Ry)=  0.1000
                       cart. coord. in units 2pi/alat
        k(    1) = (   0.0000000   0.0000000   0.0000000), wk =   0.2500000
        k(    2) = (   0.0000000   0.0000000  -0.5393495), wk =   0.2500000
        k(    3) = (   0.0000000  -0.5773503   0.0000000), wk =   0.7500000
        k(    4) = (   0.0000000  -0.5773503  -0.5393495), wk =   0.7500000

     Dense  grid:   300083 G-vectors     FFT dimensions: (  90,  90,  90)

     Smooth grid:    76049 G-vectors     FFT dimensions: (  60,  60,  54)

     Estimated max dynamical RAM per process >      61.36 MB

     Estimated total dynamical RAM >     981.80 MB

     Check: negative core charge=   -0.000006

     Initial potential from superposition of free atoms

     starting charge  143.99850, renormalised to  144.00000


     %%%%%%%%%%%%%%%%%%%%%%%%%%%%%%%%%%%%%%%%%%%%%%%%%%%%%%%%%%%%%%%%%%%%%%%%
     %                                                                      %
     % You are using vdW-DF, which was implemented by the Thonhauser group. %
     % Please cite the following two papers that made this development      %
     % possible and the two reviews that describe the various versions:     %
     %                                                                      %
     %   T. Thonhauser et al., PRL 115, 136402 (2015).                      %
     %   T. Thonhauser et al., PRB 76, 125112 (2007).                       %
     %   K. Berland et al., Rep. Prog. Phys. 78, 066501 (2015).             %
     %   D.C. Langreth et al., J. Phys.: Condens. Matter 21, 084203 (2009). %
     %                                                                      %
     %                                                                      %
     % If you are calculating the stress with vdW-DF, please also cite:     %
     %                                                                      %
     %   R. Sabatini et al., J. Phys.: Condens. Matter 24, 424209 (2012).   %
     %                                                                      %
     %%%%%%%%%%%%%%%%%%%%%%%%%%%%%%%%%%%%%%%%%%%%%%%%%%%%%%%%%%%%%%%%%%%%%%%%


     Starting wfcs are  144 randomized atomic wfcs
     Checking if some PAW data can be deallocated... 

     total cpu time spent up to now is       10.4 secs

     Self-consistent Calculation

     iteration #  1     ecut=    40.00 Ry     beta= 0.40
     Davidson diagonalization with overlap
     ethr =  1.00E-02,  avg # of iterations =  2.2

     total cpu time spent up to now is       27.0 secs

     total energy              =    -677.57511438 Ry
     Harris-Foulkes estimate   =    -679.09643268 Ry
     estimated scf accuracy    <       3.79630890 Ry

     iteration #  2     ecut=    40.00 Ry     beta= 0.40
     Davidson diagonalization with overlap
     ethr =  2.64E-03,  avg # of iterations =  2.0

     total cpu time spent up to now is       38.1 secs

     total energy              =    -677.41369544 Ry
     Harris-Foulkes estimate   =    -677.77705317 Ry
     estimated scf accuracy    <       0.74157999 Ry

     iteration #  3     ecut=    40.00 Ry     beta= 0.40
     Davidson diagonalization with overlap
     ethr =  5.15E-04,  avg # of iterations =  2.0

     total cpu time spent up to now is       52.4 secs

     total energy              =    -677.53757994 Ry
     Harris-Foulkes estimate   =    -677.53651144 Ry
     estimated scf accuracy    <       0.01879155 Ry

     iteration #  4     ecut=    40.00 Ry     beta= 0.40
     Davidson diagonalization with overlap
     ethr =  1.30E-05,  avg # of iterations =  2.0

     total cpu time spent up to now is       66.8 secs

     total energy              =    -677.53890141 Ry
     Harris-Foulkes estimate   =    -677.54113885 Ry
     estimated scf accuracy    <       0.00393820 Ry

     iteration #  5     ecut=    40.00 Ry     beta= 0.40
     Davidson diagonalization with overlap
     ethr =  2.73E-06,  avg # of iterations =  6.0

     total cpu time spent up to now is       77.4 secs

     total energy              =    -677.53969161 Ry
     Harris-Foulkes estimate   =    -677.53970855 Ry
     estimated scf accuracy    <       0.00005808 Ry

     iteration #  6     ecut=    40.00 Ry     beta= 0.40
     Davidson diagonalization with overlap
     ethr =  4.03E-08,  avg # of iterations =  2.2

     total cpu time spent up to now is       89.4 secs

     total energy              =    -677.53970541 Ry
     Harris-Foulkes estimate   =    -677.53970292 Ry
     estimated scf accuracy    <       0.00000495 Ry

     iteration #  7     ecut=    40.00 Ry     beta= 0.40
     Davidson diagonalization with overlap
     ethr =  3.44E-09,  avg # of iterations =  2.5

     total cpu time spent up to now is      101.9 secs

     End of self-consistent calculation

          k = 0.0000 0.0000 0.0000 (  9489 PWs)   bands (ev):

   -12.9142 -12.6703 -10.3448 -10.3447 -10.3447 -10.3445 -10.3445 -10.3444
   -10.1404 -10.1403 -10.1403 -10.1401 -10.1401 -10.1400  -6.0774  -6.0774
    -6.0000  -6.0000  -6.0000  -6.0000  -5.9248  -5.9248  -3.7736  -3.7736
    -3.7736  -3.7736  -3.0634  -3.0634  -3.0634  -3.0633  -3.0633  -3.0633
    -2.9579  -2.9579  -2.9579  -2.9578  -2.9578  -2.9578  -1.6859   0.0351
     0.7861   0.7861   0.7862   0.7863   0.7863   0.7863   0.8272   0.8272
     0.8273   0.8274   0.8274   0.8274   1.3672   1.3673   1.3673   1.3674
     1.3674   1.3675   2.8366   2.8368   2.8368   2.8369   2.8369   2.8370
     3.4686   3.4686   3.4827   3.4827   6.0517   6.0517   6.5843   6.5843
     6.5843   6.5843   7.2137   7.2137  10.7907  11.1213  11.1213  11.1213
    11.1214  11.1214  11.1214  11.8836  11.8836  11.8836

          k = 0.0000 0.0000-0.5393 (  9506 PWs)   bands (ev):

   -12.7960 -12.7959 -10.2448 -10.2447 -10.2447 -10.2447 -10.2447 -10.2447
   -10.2446 -10.2446 -10.2445 -10.2445 -10.2445 -10.2444  -6.0026  -6.0026
    -6.0025  -6.0025  -5.9990  -5.9990  -5.9989  -5.9989  -3.7769  -3.7769
    -3.7769  -3.7769  -3.0114  -3.0114  -3.0114  -3.0114  -3.0113  -3.0113
    -3.0113  -3.0113  -3.0113  -3.0113  -3.0113  -3.0112  -0.9054  -0.9054
     0.8070   0.8070   0.8071   0.8071   0.8071   0.8071   0.8072   0.8072
     0.8072   0.8073   0.8073   0.8073   2.0457   2.0457   2.0458   2.0458
     2.0458   2.0458   2.0459   2.0459   2.0459   2.0459   2.0460   2.0460
     3.4752   3.4752   3.4752   3.4752   6.5957   6.5957   6.5957   6.5957
     6.6079   6.6079   6.6079   6.6079  11.4534  11.4534  11.4534  11.4535
    11.4535  11.4535  11.4535  11.4536  11.4536  11.4536

          k = 0.0000-0.5774 0.0000 (  9510 PWs)   bands (ev):

   -12.2631 -12.2629 -12.0292 -12.0291 -10.9777 -10.9777 -10.7635 -10.7635
    -8.5149  -8.5149  -8.5148  -8.5148  -8.3417  -8.3417  -8.3416  -8.3416
    -7.7215  -7.6314  -6.5419  -6.4745  -4.8244  -4.8244  -4.8242  -4.8242
    -4.7091  -4.7091  -4.7090  -4.7089  -1.4308  -1.4308  -1.4307  -1.4307
    -1.3606  -1.3606  -1.3605  -1.3604  -1.2210  -1.2210  -1.1774  -1.1774
    -0.8983  -0.8981   0.1624   0.1982   0.1982   0.2065   0.2295   0.2295
     0.6383   0.6383   0.7727   0.7729   1.1993   1.1994   1.2502   1.2502
     2.1927   2.1927   2.3662   2.3663   2.3966   2.3967   3.4297   3.4298
     3.4298   3.4298   3.9228   4.5234   4.5881   4.5881   4.5882   4.5882
     8.1405   8.7296   8.8144   8.8144   8.8145   8.8145   9.4501   9.4501
     9.4502   9.4502  11.5924  11.5925  12.6869  12.6869

          k = 0.0000-0.5774-0.5393 (  9508 PWs)   bands (ev):

   -12.1493 -12.1493 -12.1491 -12.1491 -10.8732 -10.8732 -10.8731 -10.8731
    -8.4298  -8.4298  -8.4298  -8.4297  -8.4297  -8.4297  -8.4297  -8.4297
    -7.6737  -7.6736  -6.5141  -6.5140  -4.7676  -4.7676  -4.7676  -4.7676
    -4.7675  -4.7675  -4.7675  -4.7674  -1.3962  -1.3962  -1.3961  -1.3961
    -1.3961  -1.3960  -1.3960  -1.3960  -1.1989  -1.1989  -1.1989  -1.1989
    -0.1383  -0.1383  -0.1381  -0.1381   0.1839   0.1839   0.2132   0.2132
     0.2133   0.2133   1.2249   1.2250   1.2250   1.2251   1.3505   1.3505
     1.3505   1.3505   2.3811   2.3812   2.3813   2.3813   3.9853   3.9853
     3.9854   3.9854   3.9854   3.9855   3.9855   3.9855   4.2690   4.2691
     8.2838   8.2838   9.0949   9.0949   9.0950   9.0950   9.0950   9.0950
     9.0950   9.0951  12.8861  12.8862  12.8862  12.8862

     the Fermi energy is     6.5707 ev

!    total energy              =    -677.53970725 Ry
     Harris-Foulkes estimate   =    -677.53970638 Ry
     estimated scf accuracy    <       0.00000032 Ry

     total all-electron energy =     -2757.584709 Ry

     The total energy is the sum of the following terms:

     one-electron contribution =    -108.93607689 Ry
     hartree contribution      =     128.74792693 Ry
     xc contribution           =    -171.72988933 Ry
     ewald contribution        =    -294.54905789 Ry
     one-center paw contrib.   =    -230.91605622 Ry
     smearing contrib. (-TS)   =      -0.15655384 Ry

     convergence has been achieved in   7 iterations

     Forces acting on atoms (cartesian axes, Ry/au):

     atom    1 type  1   force =     0.00000000    0.00000000    0.00000000
     atom    2 type  1   force =     0.00000000    0.00000506   -0.00000000
     atom    3 type  1   force =     0.00000000    0.00000000    0.00000000
     atom    4 type  1   force =     0.00000220    0.00000127    0.00000000
     atom    5 type  1   force =    -0.00000071    0.00000134    0.00000000
     atom    6 type  1   force =     0.00000040    0.00000023   -0.00000000
     atom    7 type  1   force =     0.00000011    0.00000045   -0.00000000
     atom    8 type  1   force =     0.00000000   -0.00000396    0.00000000
     atom    9 type  1   force =     0.00000081   -0.00000129   -0.00000000
     atom   10 type  1   force =     0.00000438   -0.00000253    0.00000000
     atom   11 type  1   force =     0.00000045   -0.00000013    0.00000000
     atom   12 type  1   force =    -0.00000343    0.00000198    0.00000000
     atom   13 type  1   force =     0.00000152   -0.00000006   -0.00000000
     atom   14 type  1   force =    -0.00000104   -0.00000060    0.00000000
     atom   15 type  1   force =     0.00000033   -0.00000032    0.00000000
     atom   16 type  1   force =     0.00000000   -0.00000148    0.00000000
     atom   17 type  1   force =     0.00000071    0.00000134   -0.00000000
     atom   18 type  1   force =    -0.00000040    0.00000023    0.00000000
     atom   19 type  1   force =    -0.00000011    0.00000045    0.00000000
     atom   20 type  1   force =    -0.00000128    0.00000074    0.00000000
     atom   21 type  1   force =     0.00000000    0.00000000    0.00000000
     atom   22 type  1   force =    -0.00000000   -0.00000046    0.00000000
     atom   23 type  1   force =     0.00000000    0.00000000    0.00000000
     atom   24 type  1   force =     0.00000343    0.00000198    0.00000000
     atom   25 type  1   force =    -0.00000152   -0.00000006    0.00000000
     atom   26 type  1   force =     0.00000104   -0.00000060   -0.00000000
     atom   27 type  1   force =    -0.00000033   -0.00000032   -0.00000000
     atom   28 type  1   force =    -0.00000220    0.00000127    0.00000000
     atom   29 type  1   force =     0.00000000    0.00000000    0.00000000
     atom   30 type  1   force =     0.00000000    0.00000120   -0.00000000
     atom   31 type  1   force =     0.00000000    0.00000000    0.00000000
     atom   32 type  1   force =     0.00000128    0.00000074    0.00000000
     atom   33 type  1   force =    -0.00000081   -0.00000129   -0.00000000
     atom   34 type  1   force =    -0.00000438   -0.00000253   -0.00000000
     atom   35 type  1   force =    -0.00000045   -0.00000013   -0.00000000
     atom   36 type  1   force =     0.00000000   -0.00000255    0.00000000

     Total force =     0.000013     Total SCF correction =     0.000568
     SCF correction compared to forces is large: reduce conv_thr to get better values

     BFGS Geometry Optimization

     bfgs converged in   1 scf cycles and   0 bfgs steps
     (criteria: energy <  1.0E-04 Ry, force <  1.0E-02 Ry/Bohr)

     End of BFGS Geometry Optimization

     Final energy   =    -677.5397072499 Ry
Begin final coordinates

ATOMIC_POSITIONS (angstrom)
C        0.000000000   0.000000000   0.000000000
C        0.000000000   1.429607266   0.000000000
C        0.000000000   0.000000000   3.443248707
C        1.238076210   0.714803633   3.443248707
C       -1.238076209   2.144410897   0.000000000
C       -1.238076209   3.574018163   0.000000000
C       -1.238076209   2.144410897   3.443248707
C        0.000000001   2.859214530   3.443248707
C       -2.476152418   4.288821794   0.000000000
C       -2.476152418   5.718429060   0.000000000
C       -2.476152418   4.288821794   3.443248707
C       -1.238076208   5.003625427   3.443248707
C        2.476152418   0.000000000   0.000000000
C        2.476152418   1.429607266   0.000000000
C        2.476152418   0.000000000   3.443248707
C        3.714228628   0.714803633   3.443248707
C        1.238076209   2.144410897   0.000000000
C        1.238076209   3.574018163   0.000000000
C        1.238076209   2.144410897   3.443248707
C        2.476152419   2.859214530   3.443248707
C        0.000000000   4.288821794   0.000000000
C        0.000000000   5.718429060   0.000000000
C        0.000000000   4.288821794   3.443248707
C        1.238076210   5.003625427   3.443248707
C        4.952304836   0.000000000   0.000000000
C        4.952304836   1.429607266   0.000000000
C        4.952304836   0.000000000   3.443248707
C        6.190381046   0.714803633   3.443248707
C        3.714228627   2.144410897   0.000000000
C        3.714228627   3.574018163   0.000000000
C        3.714228627   2.144410897   3.443248707
C        4.952304837   2.859214530   3.443248707
C        2.476152418   4.288821794   0.000000000
C        2.476152418   5.718429060   0.000000000
C        2.476152418   4.288821794   3.443248707
C        3.714228628   5.003625427   3.443248707
End final coordinates



     Writing output data file graph.save/

     init_run     :      9.26s CPU      9.65s WALL (       1 calls)
     electrons    :     89.05s CPU     91.43s WALL (       1 calls)
     forces       :      5.23s CPU      5.37s WALL (       1 calls)

     Called by init_run:
     wfcinit      :      6.12s CPU      6.23s WALL (       1 calls)
     potinit      :      1.38s CPU      1.56s WALL (       1 calls)
     hinit0       :      0.54s CPU      0.57s WALL (       1 calls)

     Called by electrons:
     c_bands      :     66.72s CPU     67.68s WALL (       7 calls)
     sum_band     :     10.10s CPU     10.30s WALL (       7 calls)
     v_of_rho     :      7.90s CPU      9.01s WALL (       8 calls)
     newd         :      3.32s CPU      3.57s WALL (       8 calls)
     PAW_pot      :      2.30s CPU      2.32s WALL (       8 calls)
     mix_rho      :      0.14s CPU      0.15s WALL (       7 calls)

     Called by c_bands:
     init_us_2    :      0.24s CPU      0.24s WALL (      64 calls)
     cegterg      :     65.82s CPU     66.76s WALL (      28 calls)

     Called by sum_band:
     sum_band:bec :      0.03s CPU      0.03s WALL (      28 calls)
     addusdens    :      2.50s CPU      2.53s WALL (       7 calls)

     Called by *egterg:
     h_psi        :     33.10s CPU     33.72s WALL (     108 calls)
     s_psi        :      8.27s CPU      8.29s WALL (     108 calls)
     g_psi        :      0.03s CPU      0.03s WALL (      76 calls)
     cdiaghg      :     10.53s CPU     10.82s WALL (     104 calls)

     Called by h_psi:
     h_psi:pot    :     33.05s CPU     33.67s WALL (     108 calls)
     h_psi:calbec :     11.08s CPU     11.23s WALL (     108 calls)
     vloc_psi     :     12.99s CPU     13.44s WALL (     108 calls)
     add_vuspsi   :      8.98s CPU      9.01s WALL (     108 calls)

     General routines
     calbec       :     17.11s CPU     17.32s WALL (     152 calls)
     fft          :      5.51s CPU      6.14s WALL (     563 calls)
     ffts         :      0.04s CPU      0.05s WALL (      15 calls)
     fftw         :     13.91s CPU     14.38s WALL (   16670 calls)
     interpolate  :      0.07s CPU      0.09s WALL (       8 calls)

     Parallel routines
     fft_scatt_xy :      1.52s CPU      1.56s WALL (   17248 calls)
     fft_scatt_yz :     12.04s CPU     12.94s WALL (   17248 calls)

     PWSCF        :   1m44.48s CPU   1m47.65s WALL


   This run was terminated on:  19:55:43  10Mar2024            

=------------------------------------------------------------------------------=
   JOB DONE.
=------------------------------------------------------------------------------=
