
     Program PWSCF v.6.4.1 starts on 17May2024 at 22:45:41 

     This program is part of the open-source Quantum ESPRESSO suite
     for quantum simulation of materials; please cite
         "P. Giannozzi et al., J. Phys.:Condens. Matter 21 395502 (2009);
         "P. Giannozzi et al., J. Phys.:Condens. Matter 29 465901 (2017);
          URL http://www.quantum-espresso.org", 
     in publications or presentations arising from this work. More details at
     http://www.quantum-espresso.org/quote

     Parallel version (MPI), running on    32 processors

     MPI processes distributed on     1 nodes
     R & G space division:  proc/nbgrp/npool/nimage =      32
     Reading input from v2o5.vc-rlx.in

     Current dimensions of program PWSCF are:
     Max number of different atomic species (ntypx) = 10
     Max number of k-points (npk) =  40000
     Max angular momentum in pseudopotentials (lmaxx) =  3

     -------------------------------------------------
     Parameters for Dispersion (Grimme-D2) Correction:
     -------------------------------------------------
       atom      VdW radius       C_6     

        V          2.952        374.666
        O          2.536         24.284

     Subspace diagonalization in iterative solution of the eigenvalue problem:
     one sub-group per band group will be used
     ELPA distributed-memory algorithm (size of sub-group:  4*  4 procs)


     Parallelization info
     --------------------
     sticks:   dense  smooth     PW     G-vecs:    dense   smooth      PW
     Min          61      61     16                 5999     5999     834
     Max          62      62     17                 6014     6014     849
     Sum        1973    1973    535               192253   192253   26969



     bravais-lattice index     =            8
     lattice parameter (alat)  =       6.6827  a.u.
     unit-cell volume          =    1233.5773 (a.u.)^3
     number of atoms/cell      =           14
     number of atomic types    =            2
     number of electrons       =       112.00
     number of Kohn-Sham states=           56
     kinetic-energy cutoff     =     110.0000  Ry
     charge density cutoff     =     440.0000  Ry
     convergence threshold     =      1.0E-10
     mixing beta               =       0.7000
     number of iterations used =            8  plain     mixing
     Exchange-correlation      = PBE ( 1  4  3  4 0 0)
     nstep                     =          500


     celldm(1)=   6.682682  celldm(2)=   1.263659  celldm(3)=   3.271025
     celldm(4)=   0.000000  celldm(5)=   0.000000  celldm(6)=   0.000000

     crystal axes: (cart. coord. in units of alat)
               a(1) = (   1.000000   0.000000   0.000000 )  
               a(2) = (   0.000000   1.263659   0.000000 )  
               a(3) = (   0.000000   0.000000   3.271025 )  

     reciprocal axes: (cart. coord. in units 2 pi/alat)
               b(1) = (  1.000000  0.000000  0.000000 )  
               b(2) = (  0.000000  0.791352  0.000000 )  
               b(3) = (  0.000000  0.000000  0.305715 )  


     PseudoPot. # 1 for V  read from file:
     /home/mpicuntureo/pseudos/v.nc.upf
     MD5 check sum: 40fb93c06b4f9d8c28c5ccd071294a04
     Pseudo is Norm-conserving + core correction, Zval = 13.0
     Generated using ONCVPSP code by D. R. Hamann
     Using radial grid of 1536 points,  6 beta functions with: 
                l(1) =   0
                l(2) =   0
                l(3) =   1
                l(4) =   1
                l(5) =   2
                l(6) =   2

     PseudoPot. # 2 for O  read from file:
     /home/mpicuntureo/pseudos/o.nc.upf
     MD5 check sum: 3e3f909f7470e8921608ab6b1f57bbae
     Pseudo is Norm-conserving + core correction, Zval =  6.0
     Generated using ONCVPSP code by D. R. Hamann
     Using radial grid of  936 points,  5 beta functions with: 
                l(1) =   0
                l(2) =   0
                l(3) =   1
                l(4) =   1
                l(5) =   2

     atomic species   valence    mass     pseudopotential
        V             13.00    50.94150     V ( 1.00)
        O              6.00    15.99940     O ( 1.00)

      8 Sym. Ops., with inversion, found ( 4 have fractional translation)



   Cartesian axes

     site n.     atom                  positions (alat units)
         1           V   tau(   1) = (   0.0000000   0.4838420   2.1198804  )
         2           V   tau(   2) = (   0.5000000   0.7798175   2.7866567  )
         3           V   tau(   3) = (   0.5000000   0.7798175   0.4843680  )
         4           V   tau(   4) = (   0.0000000   0.4838420   1.1511443  )
         5           O   tau(   5) = (   0.5000000   0.6221939   2.2285187  )
         6           O   tau(   6) = (   0.0000000   0.6414656   2.6780184  )
         7           O   tau(   7) = (   0.0000000   0.6414656   0.5930063  )
         8           O   tau(   8) = (   0.5000000   0.6221939   1.0425060  )
         9           O   tau(   9) = (   0.0000000   0.0364742   1.1584929  )
        10           O   tau(  10) = (   0.5000000   1.2271853   0.4770194  )
        11           O   tau(  11) = (   0.5000000   1.2271853   2.7940053  )
        12           O   tau(  12) = (   0.5000000   0.6433842   0.0000000  )
        13           O   tau(  13) = (   0.0000000   0.6202753   1.6355124  )
        14           O   tau(  14) = (   0.0000000   0.0364742   2.1125318  )

     number of k points=     4
                       cart. coord. in units 2pi/alat
        k(    1) = (   0.0000000   0.0000000   0.0000000), wk =   0.2222222
        k(    2) = (   0.0000000   0.2637841   0.0000000), wk =   0.4444444
        k(    3) = (   0.3333333   0.0000000   0.0000000), wk =   0.4444444
        k(    4) = (   0.3333333   0.2637841   0.0000000), wk =   0.8888889

     Dense  grid:   192253 G-vectors     FFT dimensions: (  48,  60, 150)

     Estimated max dynamical RAM per process >      21.81 MB

     Estimated total dynamical RAM >     697.78 MB

     Initial potential from superposition of free atoms

     starting charge  111.99579, renormalised to  112.00000
     Starting wfcs are   80 randomized atomic wfcs

     total cpu time spent up to now is        1.4 secs

     Self-consistent Calculation

     iteration #  1     ecut=   110.00 Ry     beta= 0.70
     Davidson diagonalization with overlap
     ethr =  1.00E-02,  avg # of iterations =  2.0

     total cpu time spent up to now is        2.2 secs

     total energy              =    -917.45147833 Ry
     Harris-Foulkes estimate   =    -923.62636232 Ry
     estimated scf accuracy    <       7.75102391 Ry

     iteration #  2     ecut=   110.00 Ry     beta= 0.70
     Davidson diagonalization with overlap
     ethr =  6.92E-03,  avg # of iterations =  6.2

     total cpu time spent up to now is        3.8 secs

     total energy              =    -908.11786764 Ry
     Harris-Foulkes estimate   =    -938.52768227 Ry
     estimated scf accuracy    <     136.12278954 Ry

     iteration #  3     ecut=   110.00 Ry     beta= 0.70
     Davidson diagonalization with overlap
     ethr =  6.92E-03,  avg # of iterations =  5.8

     total cpu time spent up to now is        5.3 secs

     total energy              =    -921.91189368 Ry
     Harris-Foulkes estimate   =    -922.67724961 Ry
     estimated scf accuracy    <       2.56010985 Ry

     iteration #  4     ecut=   110.00 Ry     beta= 0.70
     Davidson diagonalization with overlap
     ethr =  2.29E-03,  avg # of iterations =  3.8

     total cpu time spent up to now is        6.1 secs

     total energy              =    -922.06621093 Ry
     Harris-Foulkes estimate   =    -922.19779244 Ry
     estimated scf accuracy    <       0.84209518 Ry

     iteration #  5     ecut=   110.00 Ry     beta= 0.70
     Davidson diagonalization with overlap
     ethr =  7.52E-04,  avg # of iterations =  4.0

     total cpu time spent up to now is        6.8 secs

     total energy              =    -922.00565708 Ry
     Harris-Foulkes estimate   =    -922.12952182 Ry
     estimated scf accuracy    <       0.42277922 Ry

     iteration #  6     ecut=   110.00 Ry     beta= 0.70
     Davidson diagonalization with overlap
     ethr =  3.77E-04,  avg # of iterations =  4.0

     total cpu time spent up to now is        7.8 secs

     total energy              =    -922.13250980 Ry
     Harris-Foulkes estimate   =    -922.14882594 Ry
     estimated scf accuracy    <       0.18074339 Ry

     iteration #  7     ecut=   110.00 Ry     beta= 0.70
     Davidson diagonalization with overlap
     ethr =  1.61E-04,  avg # of iterations =  2.0

     total cpu time spent up to now is        8.4 secs

     total energy              =    -922.10645254 Ry
     Harris-Foulkes estimate   =    -922.13488340 Ry
     estimated scf accuracy    <       0.13794246 Ry

     iteration #  8     ecut=   110.00 Ry     beta= 0.70
     Davidson diagonalization with overlap
     ethr =  1.23E-04,  avg # of iterations =  3.8

     total cpu time spent up to now is        9.3 secs

     total energy              =    -922.12514861 Ry
     Harris-Foulkes estimate   =    -922.12614835 Ry
     estimated scf accuracy    <       0.00233041 Ry

     iteration #  9     ecut=   110.00 Ry     beta= 0.70
     Davidson diagonalization with overlap
     ethr =  2.08E-06,  avg # of iterations =  5.8

     total cpu time spent up to now is       10.6 secs

     total energy              =    -922.12714724 Ry
     Harris-Foulkes estimate   =    -922.12745158 Ry
     estimated scf accuracy    <       0.00138095 Ry

     iteration # 10     ecut=   110.00 Ry     beta= 0.70
     Davidson diagonalization with overlap
     ethr =  1.23E-06,  avg # of iterations =  4.0

     total cpu time spent up to now is       11.4 secs

     total energy              =    -922.12723961 Ry
     Harris-Foulkes estimate   =    -922.12732397 Ry
     estimated scf accuracy    <       0.00043241 Ry

     iteration # 11     ecut=   110.00 Ry     beta= 0.70
     Davidson diagonalization with overlap
     ethr =  3.86E-07,  avg # of iterations =  3.0

     total cpu time spent up to now is       12.0 secs

     total energy              =    -922.12720483 Ry
     Harris-Foulkes estimate   =    -922.12725794 Ry
     estimated scf accuracy    <       0.00020570 Ry

     iteration # 12     ecut=   110.00 Ry     beta= 0.70
     Davidson diagonalization with overlap
     ethr =  1.84E-07,  avg # of iterations =  4.0

     total cpu time spent up to now is       13.0 secs

     total energy              =    -922.12726183 Ry
     Harris-Foulkes estimate   =    -922.12727225 Ry
     estimated scf accuracy    <       0.00008417 Ry

     iteration # 13     ecut=   110.00 Ry     beta= 0.70
     Davidson diagonalization with overlap
     ethr =  7.52E-08,  avg # of iterations =  1.0

     total cpu time spent up to now is       13.6 secs

     total energy              =    -922.12725596 Ry
     Harris-Foulkes estimate   =    -922.12726315 Ry
     estimated scf accuracy    <       0.00005544 Ry

     iteration # 14     ecut=   110.00 Ry     beta= 0.70
     Davidson diagonalization with overlap
     ethr =  4.95E-08,  avg # of iterations =  3.2

     total cpu time spent up to now is       14.2 secs

     total energy              =    -922.12725529 Ry
     Harris-Foulkes estimate   =    -922.12725858 Ry
     estimated scf accuracy    <       0.00002089 Ry

     iteration # 15     ecut=   110.00 Ry     beta= 0.70
     Davidson diagonalization with overlap
     ethr =  1.86E-08,  avg # of iterations =  4.0

     total cpu time spent up to now is       15.2 secs

     total energy              =    -922.12726284 Ry
     Harris-Foulkes estimate   =    -922.12726326 Ry
     estimated scf accuracy    <       0.00000752 Ry

     iteration # 16     ecut=   110.00 Ry     beta= 0.70
     Davidson diagonalization with overlap
     ethr =  6.72E-09,  avg # of iterations =  1.8

     total cpu time spent up to now is       15.8 secs

     total energy              =    -922.12725994 Ry
     Harris-Foulkes estimate   =    -922.12726291 Ry
     estimated scf accuracy    <       0.00000643 Ry

     iteration # 17     ecut=   110.00 Ry     beta= 0.70
     Davidson diagonalization with overlap
     ethr =  5.74E-09,  avg # of iterations =  5.0

     total cpu time spent up to now is       17.1 secs

     total energy              =    -922.12726144 Ry
     Harris-Foulkes estimate   =    -922.12726381 Ry
     estimated scf accuracy    <       0.00001229 Ry

     iteration # 18     ecut=   110.00 Ry     beta= 0.70
     Davidson diagonalization with overlap
     ethr =  5.74E-09,  avg # of iterations =  4.0

     total cpu time spent up to now is       17.9 secs

     total energy              =    -922.12726220 Ry
     Harris-Foulkes estimate   =    -922.12726226 Ry
     estimated scf accuracy    <       0.00000080 Ry

     iteration # 19     ecut=   110.00 Ry     beta= 0.70
     Davidson diagonalization with overlap
     ethr =  7.15E-10,  avg # of iterations =  4.0

     total cpu time spent up to now is       18.7 secs

     total energy              =    -922.12726226 Ry
     Harris-Foulkes estimate   =    -922.12726233 Ry
     estimated scf accuracy    <       0.00000025 Ry

     iteration # 20     ecut=   110.00 Ry     beta= 0.70
     Davidson diagonalization with overlap
     ethr =  2.24E-10,  avg # of iterations =  4.8

     total cpu time spent up to now is       19.8 secs

     total energy              =    -922.12726235 Ry
     Harris-Foulkes estimate   =    -922.12726235 Ry
     estimated scf accuracy    <       0.00000017 Ry

     iteration # 21     ecut=   110.00 Ry     beta= 0.70
     Davidson diagonalization with overlap
     ethr =  1.55E-10,  avg # of iterations =  1.0

     total cpu time spent up to now is       20.4 secs

     total energy              =    -922.12726233 Ry
     Harris-Foulkes estimate   =    -922.12726235 Ry
     estimated scf accuracy    <       0.00000017 Ry

     iteration # 22     ecut=   110.00 Ry     beta= 0.70
     Davidson diagonalization with overlap
     ethr =  1.53E-10,  avg # of iterations =  1.0

     total cpu time spent up to now is       21.0 secs

     total energy              =    -922.12726233 Ry
     Harris-Foulkes estimate   =    -922.12726234 Ry
     estimated scf accuracy    <       0.00000011 Ry

     iteration # 23     ecut=   110.00 Ry     beta= 0.70
     Davidson diagonalization with overlap
     ethr =  9.58E-11,  avg # of iterations =  1.0

     total cpu time spent up to now is       21.5 secs

     total energy              =    -922.12726231 Ry
     Harris-Foulkes estimate   =    -922.12726233 Ry
     estimated scf accuracy    <       0.00000010 Ry

     iteration # 24     ecut=   110.00 Ry     beta= 0.70
     Davidson diagonalization with overlap
     ethr =  8.70E-11,  avg # of iterations =  4.0

     total cpu time spent up to now is       22.5 secs

     total energy              =    -922.12726233 Ry
     Harris-Foulkes estimate   =    -922.12726233 Ry
     estimated scf accuracy    <       0.00000003 Ry

     iteration # 25     ecut=   110.00 Ry     beta= 0.70
     Davidson diagonalization with overlap
     ethr =  2.27E-11,  avg # of iterations =  1.5

     total cpu time spent up to now is       23.1 secs

     total energy              =    -922.12726233 Ry
     Harris-Foulkes estimate   =    -922.12726233 Ry
     estimated scf accuracy    <       0.00000001 Ry

     iteration # 26     ecut=   110.00 Ry     beta= 0.70
     Davidson diagonalization with overlap
     ethr =  1.33E-11,  avg # of iterations =  3.5

     total cpu time spent up to now is       24.0 secs

     total energy              =    -922.12726233 Ry
     Harris-Foulkes estimate   =    -922.12726233 Ry
     estimated scf accuracy    <          1.8E-09 Ry

     iteration # 27     ecut=   110.00 Ry     beta= 0.70
     Davidson diagonalization with overlap
     ethr =  1.61E-12,  avg # of iterations =  4.5

     total cpu time spent up to now is       25.2 secs

     total energy              =    -922.12726233 Ry
     Harris-Foulkes estimate   =    -922.12726233 Ry
     estimated scf accuracy    <          7.9E-09 Ry

     iteration # 28     ecut=   110.00 Ry     beta= 0.70
     Davidson diagonalization with overlap
     ethr =  1.61E-12,  avg # of iterations =  5.0

     total cpu time spent up to now is       26.6 secs

     total energy              =    -922.12726233 Ry
     Harris-Foulkes estimate   =    -922.12726233 Ry
     estimated scf accuracy    <          4.1E-09 Ry

     iteration # 29     ecut=   110.00 Ry     beta= 0.70
     Davidson diagonalization with overlap
     ethr =  1.61E-12,  avg # of iterations =  1.0

     total cpu time spent up to now is       27.1 secs

     total energy              =    -922.12726233 Ry
     Harris-Foulkes estimate   =    -922.12726233 Ry
     estimated scf accuracy    <          3.9E-09 Ry

     iteration # 30     ecut=   110.00 Ry     beta= 0.70
     Davidson diagonalization with overlap
     ethr =  1.61E-12,  avg # of iterations =  2.0

     total cpu time spent up to now is       27.7 secs

     total energy              =    -922.12726233 Ry
     Harris-Foulkes estimate   =    -922.12726233 Ry
     estimated scf accuracy    <          2.3E-09 Ry

     iteration # 31     ecut=   110.00 Ry     beta= 0.70
     Davidson diagonalization with overlap
     ethr =  1.61E-12,  avg # of iterations =  2.0

     total cpu time spent up to now is       28.3 secs

     total energy              =    -922.12726233 Ry
     Harris-Foulkes estimate   =    -922.12726233 Ry
     estimated scf accuracy    <          1.4E-09 Ry

     iteration # 32     ecut=   110.00 Ry     beta= 0.70
     Davidson diagonalization with overlap
     ethr =  1.28E-12,  avg # of iterations =  4.0

     total cpu time spent up to now is       29.1 secs

     End of self-consistent calculation

          k = 0.0000 0.0000 0.0000 ( 23947 PWs)   bands (ev):

   -59.9655 -59.9636 -59.9547 -59.9527 -34.0020 -33.9996 -33.9928 -33.9872
   -33.9076 -33.8543 -33.8277 -33.7981 -33.7956 -33.7769 -33.7638 -33.7613
   -13.5388 -13.4153 -12.4491 -12.3223 -12.2370 -12.1952 -11.8134 -11.8090
   -11.6506 -11.6303  -0.4144  -0.4012  -0.3566  -0.2454  -0.0685   0.3669
     1.0617   1.1092   1.3411   1.3454   1.5786   1.6166   1.8693   1.8706
     1.9086   2.0056   2.0830   2.0926   2.1928   2.2822   2.3780   2.5119
     2.5198   2.9114   3.0332   3.0602   3.1098   3.3296   3.3606   3.4254

          k = 0.0000 0.2638 0.0000 ( 24012 PWs)   bands (ev):

   -59.9655 -59.9635 -59.9547 -59.9527 -34.0036 -34.0012 -33.9960 -33.9904
   -33.9072 -33.8539 -33.8277 -33.7980 -33.7955 -33.7769 -33.7638 -33.7613
   -13.4659 -13.3529 -12.3855 -12.2950 -12.2339 -12.1765 -11.8218 -11.7992
   -11.6218 -11.5969  -0.4603  -0.4469  -0.3935  -0.2894  -0.2365   0.0400
     0.2965   0.4762   0.5192   0.6668   1.1631   1.3052   1.3625   1.8081
     1.8627   2.0705   2.2210   2.3178   2.4818   2.5483   2.6888   2.7953
     3.0419   3.0492   3.0943   3.2112   3.2295   3.5094   3.5826   3.7239

          k = 0.3333 0.0000 0.0000 ( 24024 PWs)   bands (ev):

   -59.9610 -59.9591 -59.9556 -59.9537 -33.9960 -33.9937 -33.9904 -33.9861
   -33.9040 -33.8767 -33.8637 -33.8542 -33.8078 -33.8024 -33.7867 -33.7760
   -12.9608 -12.8194 -12.3460 -12.1812 -12.1711 -12.1456 -11.7521 -11.7418
   -11.7096 -11.6672  -0.9215  -0.8448  -0.0949  -0.0903   0.0336   0.3640
     0.4919   0.8759   0.8814   1.1805   1.2157   1.2527   1.6202   1.7572
     1.7673   1.9322   2.0104   2.0277   2.1116   2.1756   2.2688   2.3177
     2.3507   2.7521   3.0389   3.1221   3.2064   3.3952   3.5731   3.6405

          k = 0.3333 0.2638 0.0000 ( 24049 PWs)   bands (ev):

   -59.9610 -59.9591 -59.9556 -59.9537 -33.9980 -33.9956 -33.9932 -33.9888
   -33.9036 -33.8765 -33.8633 -33.8539 -33.8078 -33.8024 -33.7867 -33.7760
   -12.8975 -12.7721 -12.3047 -12.1780 -12.1548 -12.1298 -11.7388 -11.7194
   -11.6409 -11.6232  -0.9237  -0.8452  -0.1652  -0.1566  -0.0886   0.1627
     0.2650   0.4022   0.4499   0.6799   0.7368   0.9560   1.2987   1.3253
     1.4368   1.4759   1.6007   1.6961   1.8595   2.3017   2.5252   2.7186
     2.9910   2.9966   3.3806   3.5734   3.6009   3.7583   3.8030   3.8082

     highest occupied level (ev):     3.8082

!    total energy              =    -922.12726233 Ry
     Harris-Foulkes estimate   =    -922.12726233 Ry
     estimated scf accuracy    <          6.4E-11 Ry

     The total energy is the sum of the following terms:

     one-electron contribution =    -591.03493482 Ry
     hartree contribution      =     334.87904586 Ry
     xc contribution           =    -174.09973085 Ry
     ewald contribution        =    -491.74104654 Ry
     Dispersion Correction     =      -0.13059599 Ry

     convergence has been achieved in  32 iterations

     Forces acting on atoms (cartesian axes, Ry/au):

     atom    1 type  1   force =    -0.00000000   -0.00000351    0.00000173
     atom    2 type  1   force =     0.00000000    0.00000351   -0.00000173
     atom    3 type  1   force =     0.00000000    0.00000351    0.00000173
     atom    4 type  1   force =    -0.00000000   -0.00000351   -0.00000173
     atom    5 type  2   force =    -0.00000000   -0.00004406    0.00008158
     atom    6 type  2   force =     0.00000000    0.00004406   -0.00008158
     atom    7 type  2   force =     0.00000000    0.00004406    0.00008158
     atom    8 type  2   force =     0.00000000   -0.00004406   -0.00008158
     atom    9 type  2   force =     0.00000000    0.00003830    0.00009150
     atom   10 type  2   force =     0.00000000   -0.00003830   -0.00009150
     atom   11 type  2   force =     0.00000000   -0.00003830    0.00009150
     atom   12 type  2   force =     0.00000000    0.00001876    0.00000000
     atom   13 type  2   force =     0.00000000   -0.00001876    0.00000000
     atom   14 type  2   force =     0.00000000    0.00003830   -0.00009150

     Total force =     0.000273     Total SCF correction =     0.000023


     Computing stress (Cartesian axis) and pressure

          total   stress  (Ry/bohr**3)                   (kbar)     P=    1.77
   0.00001179   0.00000000   0.00000000          1.73      0.00      0.00
   0.00000000   0.00001217   0.00000000          0.00      1.79      0.00
   0.00000000   0.00000000   0.00001211          0.00      0.00      1.78


     BFGS Geometry Optimization

     number of scf cycles    =   1
     number of bfgs steps    =   0

     enthalpy new            =    -922.1272623317 Ry

     new trust radius        =       0.0021377174 bohr
     new conv_thr            =            1.0E-10 Ry

     new unit-cell volume =   1234.69003 a.u.^3 (   182.96218 Ang^3 )
     density =      3.30143 g/cm^3

CELL_PARAMETERS (alat=  6.68268247)
   1.000294702   0.000000000   0.000000000
   0.000000000   1.264044053   0.000000000
   0.000000000   0.000000000   3.272014984

ATOMIC_POSITIONS (crystal)
V       -0.000000000   0.382889111   0.648078458
V        0.500000002   0.617110893   0.851921547
V        0.500000002   0.617110893   0.148078457
V       -0.000000000   0.382889111   0.351921545
O        0.500000002   0.492369466   0.681294420
O        0.000000000   0.507630538   0.818705585
O        0.000000000   0.507630538   0.181294419
O        0.500000002   0.492369466   0.318705583
O        0.000000000   0.028868457   0.354172381
O        0.500000002   0.971131547   0.145827622
O        0.500000002   0.971131547   0.854172382
O        0.500000002   0.509145841   0.000000000
O        0.000000000   0.490854163   0.500000002
O        0.000000000   0.028868457   0.645827624



     Writing output data file v2o5.save/
     NEW-OLD atomic charge density approx. for the potential
     extrapolated charge  112.10093, renormalised to  112.00000

     total cpu time spent up to now is       31.4 secs

     Self-consistent Calculation

     iteration #  1     ecut=   110.00 Ry     beta= 0.70
     Davidson diagonalization with overlap
     ethr =  1.00E-06,  avg # of iterations =  5.2

     total cpu time spent up to now is       32.7 secs

     total energy              =    -922.12430889 Ry
     Harris-Foulkes estimate   =    -921.69004541 Ry
     estimated scf accuracy    <       0.00287837 Ry

     iteration #  2     ecut=   110.00 Ry     beta= 0.70
     Davidson diagonalization with overlap
     ethr =  2.57E-06,  avg # of iterations =  5.8

     total cpu time spent up to now is       34.2 secs

     total energy              =    -922.12126264 Ry
     Harris-Foulkes estimate   =    -922.13693252 Ry
     estimated scf accuracy    <       0.08229527 Ry

     iteration #  3     ecut=   110.00 Ry     beta= 0.70
     Davidson diagonalization with overlap
     ethr =  2.57E-06,  avg # of iterations =  5.0

     total cpu time spent up to now is       35.6 secs

     total energy              =    -922.12733348 Ry
     Harris-Foulkes estimate   =    -922.12754925 Ry
     estimated scf accuracy    <       0.00157957 Ry

     iteration #  4     ecut=   110.00 Ry     beta= 0.70
     Davidson diagonalization with overlap
     ethr =  1.41E-06,  avg # of iterations =  1.0

     total cpu time spent up to now is       36.2 secs

     total energy              =    -922.12722240 Ry
     Harris-Foulkes estimate   =    -922.12736237 Ry
     estimated scf accuracy    <       0.00110831 Ry

     iteration #  5     ecut=   110.00 Ry     beta= 0.70
     Davidson diagonalization with overlap
     ethr =  9.90E-07,  avg # of iterations =  2.0

     total cpu time spent up to now is       36.8 secs

     total energy              =    -922.12724422 Ry
     Harris-Foulkes estimate   =    -922.12725396 Ry
     estimated scf accuracy    <       0.00059112 Ry

     iteration #  6     ecut=   110.00 Ry     beta= 0.70
     Davidson diagonalization with overlap
     ethr =  5.28E-07,  avg # of iterations =  1.0

     total cpu time spent up to now is       37.3 secs

     total energy              =    -922.12725572 Ry
     Harris-Foulkes estimate   =    -922.12725741 Ry
     estimated scf accuracy    <       0.00051847 Ry

     iteration #  7     ecut=   110.00 Ry     beta= 0.70
     Davidson diagonalization with overlap
     ethr =  4.63E-07,  avg # of iterations =  1.0

     total cpu time spent up to now is       37.9 secs

     total energy              =    -922.12726125 Ry
     Harris-Foulkes estimate   =    -922.12726296 Ry
     estimated scf accuracy    <       0.00043346 Ry

     iteration #  8     ecut=   110.00 Ry     beta= 0.70
     Davidson diagonalization with overlap
     ethr =  3.87E-07,  avg # of iterations =  1.0

     total cpu time spent up to now is       38.5 secs

     total energy              =    -922.12726458 Ry
     Harris-Foulkes estimate   =    -922.12726721 Ry
     estimated scf accuracy    <       0.00037316 Ry

     iteration #  9     ecut=   110.00 Ry     beta= 0.70
     Davidson diagonalization with overlap
     ethr =  3.33E-07,  avg # of iterations =  1.0

     total cpu time spent up to now is       39.0 secs

     total energy              =    -922.12726664 Ry
     Harris-Foulkes estimate   =    -922.12726903 Ry
     estimated scf accuracy    <       0.00032506 Ry

     iteration # 10     ecut=   110.00 Ry     beta= 0.70
     Davidson diagonalization with overlap
     ethr =  2.90E-07,  avg # of iterations =  1.0

     total cpu time spent up to now is       39.6 secs

     total energy              =    -922.12722864 Ry
     Harris-Foulkes estimate   =    -922.12727015 Ry
     estimated scf accuracy    <       0.00028414 Ry

     iteration # 11     ecut=   110.00 Ry     beta= 0.70
     Davidson diagonalization with overlap
     ethr =  2.54E-07,  avg # of iterations =  4.0

     total cpu time spent up to now is       40.4 secs

     total energy              =    -922.12726185 Ry
     Harris-Foulkes estimate   =    -922.12726769 Ry
     estimated scf accuracy    <       0.00004145 Ry

     iteration # 12     ecut=   110.00 Ry     beta= 0.70
     Davidson diagonalization with overlap
     ethr =  3.70E-08,  avg # of iterations =  4.2

     total cpu time spent up to now is       41.3 secs

     total energy              =    -922.12728289 Ry
     Harris-Foulkes estimate   =    -922.12727801 Ry
     estimated scf accuracy    <       0.00005387 Ry

     iteration # 13     ecut=   110.00 Ry     beta= 0.70
     Davidson diagonalization with overlap
     ethr =  3.70E-08,  avg # of iterations =  2.0

     total cpu time spent up to now is       41.9 secs

     total energy              =    -922.12725797 Ry
     Harris-Foulkes estimate   =    -922.12728382 Ry
     estimated scf accuracy    <       0.00007876 Ry

     iteration # 14     ecut=   110.00 Ry     beta= 0.70
     Davidson diagonalization with overlap
     ethr =  3.70E-08,  avg # of iterations =  4.8

     total cpu time spent up to now is       43.0 secs

     total energy              =    -922.12726842 Ry
     Harris-Foulkes estimate   =    -922.12727167 Ry
     estimated scf accuracy    <       0.00001000 Ry

     iteration # 15     ecut=   110.00 Ry     beta= 0.70
     Davidson diagonalization with overlap
     ethr =  8.93E-09,  avg # of iterations =  4.0

     total cpu time spent up to now is       43.8 secs

     total energy              =    -922.12726948 Ry
     Harris-Foulkes estimate   =    -922.12726974 Ry
     estimated scf accuracy    <       0.00000060 Ry

     iteration # 16     ecut=   110.00 Ry     beta= 0.70
     Davidson diagonalization with overlap
     ethr =  5.37E-10,  avg # of iterations =  4.5

     total cpu time spent up to now is       45.1 secs

     total energy              =    -922.12727006 Ry
     Harris-Foulkes estimate   =    -922.12727013 Ry
     estimated scf accuracy    <       0.00000111 Ry

     iteration # 17     ecut=   110.00 Ry     beta= 0.70
     Davidson diagonalization with overlap
     ethr =  5.37E-10,  avg # of iterations =  1.0

     total cpu time spent up to now is       45.7 secs

     total energy              =    -922.12726985 Ry
     Harris-Foulkes estimate   =    -922.12727006 Ry
     estimated scf accuracy    <       0.00000091 Ry

     iteration # 18     ecut=   110.00 Ry     beta= 0.70
     Davidson diagonalization with overlap
     ethr =  5.37E-10,  avg # of iterations =  4.0

     total cpu time spent up to now is       46.6 secs

     total energy              =    -922.12726994 Ry
     Harris-Foulkes estimate   =    -922.12726995 Ry
     estimated scf accuracy    <       0.00000013 Ry

     iteration # 19     ecut=   110.00 Ry     beta= 0.70
     Davidson diagonalization with overlap
     ethr =  1.20E-10,  avg # of iterations =  2.2

     total cpu time spent up to now is       47.2 secs

     total energy              =    -922.12726993 Ry
     Harris-Foulkes estimate   =    -922.12726994 Ry
     estimated scf accuracy    <       0.00000009 Ry

     iteration # 20     ecut=   110.00 Ry     beta= 0.70
     Davidson diagonalization with overlap
     ethr =  8.30E-11,  avg # of iterations =  3.8

     total cpu time spent up to now is       47.9 secs

     total energy              =    -922.12726993 Ry
     Harris-Foulkes estimate   =    -922.12726994 Ry
     estimated scf accuracy    <       0.00000004 Ry

     iteration # 21     ecut=   110.00 Ry     beta= 0.70
     Davidson diagonalization with overlap
     ethr =  3.48E-11,  avg # of iterations =  4.0

     total cpu time spent up to now is       48.9 secs

     total energy              =    -922.12726994 Ry
     Harris-Foulkes estimate   =    -922.12726994 Ry
     estimated scf accuracy    <       0.00000002 Ry

     iteration # 22     ecut=   110.00 Ry     beta= 0.70
     Davidson diagonalization with overlap
     ethr =  1.61E-11,  avg # of iterations =  1.0

     total cpu time spent up to now is       49.5 secs

     total energy              =    -922.12726994 Ry
     Harris-Foulkes estimate   =    -922.12726994 Ry
     estimated scf accuracy    <          9.3E-09 Ry

     iteration # 23     ecut=   110.00 Ry     beta= 0.70
     Davidson diagonalization with overlap
     ethr =  8.26E-12,  avg # of iterations =  4.0

     total cpu time spent up to now is       50.4 secs

     total energy              =    -922.12726994 Ry
     Harris-Foulkes estimate   =    -922.12726994 Ry
     estimated scf accuracy    <          1.9E-09 Ry

     iteration # 24     ecut=   110.00 Ry     beta= 0.70
     Davidson diagonalization with overlap
     ethr =  1.72E-12,  avg # of iterations =  3.2

     total cpu time spent up to now is       51.1 secs

     total energy              =    -922.12726994 Ry
     Harris-Foulkes estimate   =    -922.12726994 Ry
     estimated scf accuracy    <          1.9E-09 Ry

     iteration # 25     ecut=   110.00 Ry     beta= 0.70
     Davidson diagonalization with overlap
     ethr =  1.69E-12,  avg # of iterations =  1.0

     total cpu time spent up to now is       51.6 secs

     total energy              =    -922.12726994 Ry
     Harris-Foulkes estimate   =    -922.12726994 Ry
     estimated scf accuracy    <          1.0E-09 Ry

     iteration # 26     ecut=   110.00 Ry     beta= 0.70
     Davidson diagonalization with overlap
     ethr =  9.30E-13,  avg # of iterations =  4.0

     total cpu time spent up to now is       52.6 secs

     total energy              =    -922.12726994 Ry
     Harris-Foulkes estimate   =    -922.12726994 Ry
     estimated scf accuracy    <          2.9E-10 Ry

     iteration # 27     ecut=   110.00 Ry     beta= 0.70
     Davidson diagonalization with overlap
     ethr =  2.63E-13,  avg # of iterations =  1.8

     total cpu time spent up to now is       53.2 secs

     total energy              =    -922.12726994 Ry
     Harris-Foulkes estimate   =    -922.12726994 Ry
     estimated scf accuracy    <          2.2E-10 Ry

     iteration # 28     ecut=   110.00 Ry     beta= 0.70
     Davidson diagonalization with overlap
     ethr =  1.94E-13,  avg # of iterations =  2.0

     total cpu time spent up to now is       53.8 secs

     total energy              =    -922.12726994 Ry
     Harris-Foulkes estimate   =    -922.12726994 Ry
     estimated scf accuracy    <          1.0E-10 Ry

     iteration # 29     ecut=   110.00 Ry     beta= 0.70
     Davidson diagonalization with overlap
     ethr =  1.00E-13,  avg # of iterations =  4.0

     total cpu time spent up to now is       54.8 secs

     End of self-consistent calculation

          k = 0.0000 0.0000 0.0000 ( 23947 PWs)   bands (ev):

   -59.9779 -59.9760 -59.9671 -59.9652 -34.0129 -34.0106 -34.0038 -33.9983
   -33.9193 -33.8662 -33.8397 -33.8102 -33.8078 -33.7891 -33.7760 -33.7735
   -13.5454 -13.4221 -12.4575 -12.3301 -12.2450 -12.2040 -11.8230 -11.8186
   -11.6606 -11.6403  -0.4213  -0.4082  -0.3630  -0.2515  -0.0761   0.3592
     1.0547   1.1022   1.3336   1.3380   1.5705   1.6084   1.8596   1.8612
     1.8989   1.9961   2.0752   2.0836   2.1849   2.2738   2.3694   2.5023
     2.5117   2.9020   3.0232   3.0502   3.1009   3.3205   3.3516   3.4156

          k = 0.0000 0.2637 0.0000 ( 24012 PWs)   bands (ev):

   -59.9779 -59.9759 -59.9671 -59.9651 -34.0146 -34.0122 -34.0070 -34.0014
   -33.9189 -33.8658 -33.8397 -33.8101 -33.8076 -33.7891 -33.7760 -33.7735
   -13.4727 -13.3599 -12.3939 -12.3028 -12.2419 -12.1854 -11.8315 -11.8090
   -11.6320 -11.6072  -0.4671  -0.4538  -0.3999  -0.2954  -0.2430   0.0340
     0.2889   0.4686   0.5124   0.6604   1.1546   1.2977   1.3548   1.7993
     1.8543   2.0628   2.2131   2.3080   2.4720   2.5393   2.6796   2.7856
     3.0317   3.0390   3.0848   3.2019   3.2204   3.5000   3.5727   3.7141

          k = 0.3332 0.0000 0.0000 ( 24024 PWs)   bands (ev):

   -59.9734 -59.9715 -59.9680 -59.9661 -34.0070 -34.0047 -34.0014 -33.9972
   -33.9157 -33.8885 -33.8756 -33.8661 -33.8199 -33.8144 -33.7988 -33.7882
   -12.9683 -12.8272 -12.3545 -12.1897 -12.1798 -12.1547 -11.7619 -11.7516
   -11.7196 -11.6772  -0.9278  -0.8515  -0.1021  -0.0965   0.0259   0.3565
     0.4847   0.8685   0.8749   1.1735   1.2084   1.2456   1.6124   1.7490
     1.7591   1.9232   2.0009   2.0195   2.1016   2.1672   2.2582   2.3084
     2.3418   2.7432   3.0302   3.1124   3.1976   3.3861   3.5639   3.6306

          k = 0.3332 0.2637 0.0000 ( 24049 PWs)   bands (ev):

   -59.9734 -59.9715 -59.9680 -59.9661 -34.0090 -34.0066 -34.0042 -33.9998
   -33.9153 -33.8883 -33.8752 -33.8658 -33.8199 -33.8144 -33.7988 -33.7882
   -12.9051 -12.7801 -12.3132 -12.1865 -12.1636 -12.1388 -11.7487 -11.7294
   -11.6511 -11.6334  -0.9300  -0.8518  -0.1712  -0.1634  -0.0955   0.1568
     0.2576   0.3957   0.4430   0.6732   0.7297   0.9483   1.2899   1.3180
     1.4285   1.4678   1.5920   1.6878   1.8507   2.2930   2.5165   2.7092
     2.9813   2.9868   3.3710   3.5639   3.5913   3.7486   3.7929   3.7986

     highest occupied level (ev):     3.7986

!    total energy              =    -922.12726994 Ry
     Harris-Foulkes estimate   =    -922.12726994 Ry
     estimated scf accuracy    <          7.9E-11 Ry

     The total energy is the sum of the following terms:

     one-electron contribution =    -591.26690738 Ry
     hartree contribution      =     334.95101389 Ry
     xc contribution           =    -174.09153403 Ry
     ewald contribution        =    -491.58937225 Ry
     Dispersion Correction     =      -0.13047016 Ry

     convergence has been achieved in  29 iterations

     Forces acting on atoms (cartesian axes, Ry/au):

     atom    1 type  1   force =     0.00000000   -0.00055250   -0.00016133
     atom    2 type  1   force =     0.00000000    0.00055250    0.00016133
     atom    3 type  1   force =     0.00000000    0.00055250   -0.00016133
     atom    4 type  1   force =    -0.00000000   -0.00055250    0.00016133
     atom    5 type  2   force =    -0.00000000   -0.00017440    0.00015527
     atom    6 type  2   force =     0.00000000    0.00017440   -0.00015527
     atom    7 type  2   force =     0.00000000    0.00017440    0.00015527
     atom    8 type  2   force =    -0.00000000   -0.00017440   -0.00015527
     atom    9 type  2   force =    -0.00000000    0.00100227    0.00005815
     atom   10 type  2   force =    -0.00000000   -0.00100227   -0.00005815
     atom   11 type  2   force =     0.00000000   -0.00100227    0.00005815
     atom   12 type  2   force =    -0.00000000    0.00029564    0.00000000
     atom   13 type  2   force =     0.00000000   -0.00029564    0.00000000
     atom   14 type  2   force =     0.00000000    0.00100227   -0.00005815

     Total force =     0.002398     Total SCF correction =     0.000019


     Computing stress (Cartesian axis) and pressure

          total   stress  (Ry/bohr**3)                   (kbar)     P=    0.20
   0.00000200   0.00000000   0.00000000          0.29      0.00      0.00
   0.00000000   0.00000048   0.00000000          0.00      0.07      0.00
   0.00000000   0.00000000   0.00000166          0.00      0.00      0.24


     number of scf cycles    =   2
     number of bfgs steps    =   1

     enthalpy old            =    -922.1272623317 Ry
     enthalpy new            =    -922.1272699405 Ry

     CASE: enthalpy_new < enthalpy_old

     new trust radius        =       0.0015824885 bohr
     new conv_thr            =            1.0E-12 Ry

     new unit-cell volume =   1235.46996 a.u.^3 (   183.07776 Ang^3 )
     density =      3.29935 g/cm^3

CELL_PARAMETERS (alat=  6.68268247)
   1.000519949   0.000000000   0.000000000
   0.000000000   1.264279928   0.000000000
   0.000000000   0.000000000   3.272734055

ATOMIC_POSITIONS (crystal)
V       -0.000000000   0.382813296   0.648069977
V        0.500000002   0.617186708   0.851930028
V        0.500000002   0.617186708   0.148069976
V       -0.000000000   0.382813296   0.351930026
O        0.500000002   0.492342647   0.681304744
O        0.000000000   0.507657357   0.818695261
O        0.000000000   0.507657357   0.181304743
O        0.500000002   0.492342647   0.318695259
O       -0.000000000   0.029008136   0.354177830
O        0.500000002   0.970991868   0.145822173
O        0.500000002   0.970991868   0.854177831
O        0.500000002   0.509187543   0.000000000
O        0.000000000   0.490812461   0.500000002
O        0.000000000   0.029008136   0.645822175



     Writing output data file v2o5.save/
     NEW-OLD atomic charge density approx. for the potential
     extrapolated charge  112.07070, renormalised to  112.00000

     total cpu time spent up to now is       57.2 secs

     Self-consistent Calculation

     iteration #  1     ecut=   110.00 Ry     beta= 0.70
     Davidson diagonalization with overlap
     ethr =  1.00E-06,  avg # of iterations =  4.2

     total cpu time spent up to now is       58.4 secs

     total energy              =    -922.12611396 Ry
     Harris-Foulkes estimate   =    -921.82075963 Ry
     estimated scf accuracy    <       0.00108173 Ry

     iteration #  2     ecut=   110.00 Ry     beta= 0.70
     Davidson diagonalization with overlap
     ethr =  9.66E-07,  avg # of iterations =  5.8

     total cpu time spent up to now is       59.9 secs

     total energy              =    -922.12511120 Ry
     Harris-Foulkes estimate   =    -922.13089625 Ry
     estimated scf accuracy    <       0.03008142 Ry

     iteration #  3     ecut=   110.00 Ry     beta= 0.70
     Davidson diagonalization with overlap
     ethr =  9.66E-07,  avg # of iterations =  5.0

     total cpu time spent up to now is       61.4 secs

     total energy              =    -922.12730416 Ry
     Harris-Foulkes estimate   =    -922.12739256 Ry
     estimated scf accuracy    <       0.00065391 Ry

     iteration #  4     ecut=   110.00 Ry     beta= 0.70
     Davidson diagonalization with overlap
     ethr =  5.84E-07,  avg # of iterations =  1.0

     total cpu time spent up to now is       61.9 secs

     total energy              =    -922.12724671 Ry
     Harris-Foulkes estimate   =    -922.12731488 Ry
     estimated scf accuracy    <       0.00046745 Ry

     iteration #  5     ecut=   110.00 Ry     beta= 0.70
     Davidson diagonalization with overlap
     ethr =  4.17E-07,  avg # of iterations =  2.2

     total cpu time spent up to now is       62.5 secs

     total energy              =    -922.12726579 Ry
     Harris-Foulkes estimate   =    -922.12726199 Ry
     estimated scf accuracy    <       0.00021952 Ry

     iteration #  6     ecut=   110.00 Ry     beta= 0.70
     Davidson diagonalization with overlap
     ethr =  1.96E-07,  avg # of iterations =  1.2

     total cpu time spent up to now is       63.1 secs

     total energy              =    -922.12727098 Ry
     Harris-Foulkes estimate   =    -922.12727161 Ry
     estimated scf accuracy    <       0.00021150 Ry

     iteration #  7     ecut=   110.00 Ry     beta= 0.70
     Davidson diagonalization with overlap
     ethr =  1.89E-07,  avg # of iterations =  1.0

     total cpu time spent up to now is       63.6 secs

     total energy              =    -922.12727182 Ry
     Harris-Foulkes estimate   =    -922.12727363 Ry
     estimated scf accuracy    <       0.00017772 Ry

     iteration #  8     ecut=   110.00 Ry     beta= 0.70
     Davidson diagonalization with overlap
     ethr =  1.59E-07,  avg # of iterations =  1.0

     total cpu time spent up to now is       64.2 secs

     total energy              =    -922.12727387 Ry
     Harris-Foulkes estimate   =    -922.12727393 Ry
     estimated scf accuracy    <       0.00015911 Ry

     iteration #  9     ecut=   110.00 Ry     beta= 0.70
     Davidson diagonalization with overlap
     ethr =  1.42E-07,  avg # of iterations =  1.0

     total cpu time spent up to now is       64.8 secs

     total energy              =    -922.12727439 Ry
     Harris-Foulkes estimate   =    -922.12727546 Ry
     estimated scf accuracy    <       0.00013955 Ry

     iteration # 10     ecut=   110.00 Ry     beta= 0.70
     Davidson diagonalization with overlap
     ethr =  1.25E-07,  avg # of iterations =  1.0

     total cpu time spent up to now is       65.3 secs

     total energy              =    -922.12724475 Ry
     Harris-Foulkes estimate   =    -922.12727572 Ry
     estimated scf accuracy    <       0.00012416 Ry

     iteration # 11     ecut=   110.00 Ry     beta= 0.70
     Davidson diagonalization with overlap
     ethr =  1.11E-07,  avg # of iterations =  4.0

     total cpu time spent up to now is       66.4 secs

     total energy              =    -922.12726856 Ry
     Harris-Foulkes estimate   =    -922.12727650 Ry
     estimated scf accuracy    <       0.00002667 Ry

     iteration # 12     ecut=   110.00 Ry     beta= 0.70
     Davidson diagonalization with overlap
     ethr =  2.38E-08,  avg # of iterations =  4.5

     total cpu time spent up to now is       67.4 secs

     total energy              =    -922.12727437 Ry
     Harris-Foulkes estimate   =    -922.12727620 Ry
     estimated scf accuracy    <       0.00001979 Ry

     iteration # 13     ecut=   110.00 Ry     beta= 0.70
     Davidson diagonalization with overlap
     ethr =  1.77E-08,  avg # of iterations =  3.5

     total cpu time spent up to now is       68.2 secs

     total energy              =    -922.12727672 Ry
     Harris-Foulkes estimate   =    -922.12727586 Ry
     estimated scf accuracy    <       0.00001604 Ry

     iteration # 14     ecut=   110.00 Ry     beta= 0.70
     Davidson diagonalization with overlap
     ethr =  1.43E-08,  avg # of iterations =  4.0

     total cpu time spent up to now is       68.9 secs

     total energy              =    -922.12726921 Ry
     Harris-Foulkes estimate   =    -922.12727790 Ry
     estimated scf accuracy    <       0.00002454 Ry

     iteration # 15     ecut=   110.00 Ry     beta= 0.70
     Davidson diagonalization with overlap
     ethr =  1.43E-08,  avg # of iterations =  4.0

     total cpu time spent up to now is       69.9 secs

     total energy              =    -922.12727285 Ry
     Harris-Foulkes estimate   =    -922.12727251 Ry
     estimated scf accuracy    <       0.00000158 Ry

     iteration # 16     ecut=   110.00 Ry     beta= 0.70
     Davidson diagonalization with overlap
     ethr =  1.42E-09,  avg # of iterations =  5.0

     total cpu time spent up to now is       71.3 secs

     total energy              =    -922.12727403 Ry
     Harris-Foulkes estimate   =    -922.12727459 Ry
     estimated scf accuracy    <       0.00001785 Ry

     iteration # 17     ecut=   110.00 Ry     beta= 0.70
     Davidson diagonalization with overlap
     ethr =  1.42E-09,  avg # of iterations =  1.0

     total cpu time spent up to now is       71.8 secs

     total energy              =    -922.12727305 Ry
     Harris-Foulkes estimate   =    -922.12727405 Ry
     estimated scf accuracy    <       0.00001638 Ry

     iteration # 18     ecut=   110.00 Ry     beta= 0.70
     Davidson diagonalization with overlap
     ethr =  1.42E-09,  avg # of iterations =  4.0

     total cpu time spent up to now is       72.7 secs

     total energy              =    -922.12727084 Ry
     Harris-Foulkes estimate   =    -922.12727330 Ry
     estimated scf accuracy    <       0.00000942 Ry

     iteration # 19     ecut=   110.00 Ry     beta= 0.70
     Davidson diagonalization with overlap
     ethr =  1.42E-09,  avg # of iterations =  5.0

     total cpu time spent up to now is       74.0 secs

     total energy              =    -922.12727213 Ry
     Harris-Foulkes estimate   =    -922.12727248 Ry
     estimated scf accuracy    <       0.00000096 Ry

     iteration # 20     ecut=   110.00 Ry     beta= 0.70
     Davidson diagonalization with overlap
     ethr =  8.54E-10,  avg # of iterations =  4.5

     total cpu time spent up to now is       75.0 secs

     total energy              =    -922.12727235 Ry
     Harris-Foulkes estimate   =    -922.12727241 Ry
     estimated scf accuracy    <       0.00000046 Ry

     iteration # 21     ecut=   110.00 Ry     beta= 0.70
     Davidson diagonalization with overlap
     ethr =  4.09E-10,  avg # of iterations =  1.0

     total cpu time spent up to now is       75.6 secs

     total energy              =    -922.12727229 Ry
     Harris-Foulkes estimate   =    -922.12727236 Ry
     estimated scf accuracy    <       0.00000031 Ry

     iteration # 22     ecut=   110.00 Ry     beta= 0.70
     Davidson diagonalization with overlap
     ethr =  2.78E-10,  avg # of iterations =  4.0

     total cpu time spent up to now is       76.5 secs

     total energy              =    -922.12727235 Ry
     Harris-Foulkes estimate   =    -922.12727236 Ry
     estimated scf accuracy    <       0.00000005 Ry

     iteration # 23     ecut=   110.00 Ry     beta= 0.70
     Davidson diagonalization with overlap
     ethr =  4.79E-11,  avg # of iterations =  1.8

     total cpu time spent up to now is       77.1 secs

     total energy              =    -922.12727235 Ry
     Harris-Foulkes estimate   =    -922.12727235 Ry
     estimated scf accuracy    <       0.00000004 Ry

     iteration # 24     ecut=   110.00 Ry     beta= 0.70
     Davidson diagonalization with overlap
     ethr =  3.36E-11,  avg # of iterations =  3.2

     total cpu time spent up to now is       77.8 secs

     total energy              =    -922.12727235 Ry
     Harris-Foulkes estimate   =    -922.12727235 Ry
     estimated scf accuracy    <          8.5E-09 Ry

     iteration # 25     ecut=   110.00 Ry     beta= 0.70
     Davidson diagonalization with overlap
     ethr =  7.55E-12,  avg # of iterations =  4.2

     total cpu time spent up to now is       78.8 secs

     total energy              =    -922.12727235 Ry
     Harris-Foulkes estimate   =    -922.12727235 Ry
     estimated scf accuracy    <          1.3E-09 Ry

     iteration # 26     ecut=   110.00 Ry     beta= 0.70
     Davidson diagonalization with overlap
     ethr =  1.20E-12,  avg # of iterations =  4.0

     total cpu time spent up to now is       79.6 secs

     total energy              =    -922.12727235 Ry
     Harris-Foulkes estimate   =    -922.12727235 Ry
     estimated scf accuracy    <          1.8E-09 Ry

     iteration # 27     ecut=   110.00 Ry     beta= 0.70
     Davidson diagonalization with overlap
     ethr =  1.20E-12,  avg # of iterations =  1.0

     total cpu time spent up to now is       80.1 secs

     total energy              =    -922.12727235 Ry
     Harris-Foulkes estimate   =    -922.12727235 Ry
     estimated scf accuracy    <          1.1E-09 Ry

     iteration # 28     ecut=   110.00 Ry     beta= 0.70
     Davidson diagonalization with overlap
     ethr =  1.00E-12,  avg # of iterations =  3.8

     total cpu time spent up to now is       80.9 secs

     total energy              =    -922.12727235 Ry
     Harris-Foulkes estimate   =    -922.12727235 Ry
     estimated scf accuracy    <          3.5E-11 Ry

     iteration # 29     ecut=   110.00 Ry     beta= 0.70
     Davidson diagonalization with overlap
     ethr =  1.00E-13,  avg # of iterations =  5.0

     total cpu time spent up to now is       81.9 secs

     total energy              =    -922.12727235 Ry
     Harris-Foulkes estimate   =    -922.12727235 Ry
     estimated scf accuracy    <          3.2E-11 Ry

     iteration # 30     ecut=   110.00 Ry     beta= 0.70
     Davidson diagonalization with overlap
     ethr =  1.00E-13,  avg # of iterations =  1.0

     total cpu time spent up to now is       82.5 secs

     total energy              =    -922.12727235 Ry
     Harris-Foulkes estimate   =    -922.12727235 Ry
     estimated scf accuracy    <          2.6E-11 Ry

     iteration # 31     ecut=   110.00 Ry     beta= 0.70
     Davidson diagonalization with overlap
     ethr =  1.00E-13,  avg # of iterations =  2.8

     total cpu time spent up to now is       83.1 secs

     total energy              =    -922.12727235 Ry
     Harris-Foulkes estimate   =    -922.12727235 Ry
     estimated scf accuracy    <          1.5E-12 Ry

     iteration # 32     ecut=   110.00 Ry     beta= 0.70
     Davidson diagonalization with overlap
     ethr =  1.00E-13,  avg # of iterations =  1.0

     total cpu time spent up to now is       83.7 secs

     total energy              =    -922.12727235 Ry
     Harris-Foulkes estimate   =    -922.12727235 Ry
     estimated scf accuracy    <          2.4E-12 Ry

     iteration # 33     ecut=   110.00 Ry     beta= 0.70
     Davidson diagonalization with overlap
     ethr =  1.00E-13,  avg # of iterations =  1.0

     total cpu time spent up to now is       84.2 secs

     total energy              =    -922.12727235 Ry
     Harris-Foulkes estimate   =    -922.12727235 Ry
     estimated scf accuracy    <          3.2E-12 Ry

     iteration # 34     ecut=   110.00 Ry     beta= 0.70
     Davidson diagonalization with overlap
     ethr =  1.00E-13,  avg # of iterations =  1.0

     total cpu time spent up to now is       84.8 secs

     total energy              =    -922.12727235 Ry
     Harris-Foulkes estimate   =    -922.12727235 Ry
     estimated scf accuracy    <          3.8E-12 Ry

     iteration # 35     ecut=   110.00 Ry     beta= 0.70
     Davidson diagonalization with overlap
     ethr =  1.00E-13,  avg # of iterations =  1.0

     total cpu time spent up to now is       85.4 secs

     total energy              =    -922.12727235 Ry
     Harris-Foulkes estimate   =    -922.12727235 Ry
     estimated scf accuracy    <          3.0E-12 Ry

     iteration # 36     ecut=   110.00 Ry     beta= 0.70
     Davidson diagonalization with overlap
     ethr =  1.00E-13,  avg # of iterations =  1.0

     total cpu time spent up to now is       86.0 secs

     total energy              =    -922.12727235 Ry
     Harris-Foulkes estimate   =    -922.12727235 Ry
     estimated scf accuracy    <          2.4E-12 Ry

     iteration # 37     ecut=   110.00 Ry     beta= 0.70
     Davidson diagonalization with overlap
     ethr =  1.00E-13,  avg # of iterations =  1.0

     total cpu time spent up to now is       86.5 secs

     total energy              =    -922.12727235 Ry
     Harris-Foulkes estimate   =    -922.12727235 Ry
     estimated scf accuracy    <          1.6E-12 Ry

     iteration # 38     ecut=   110.00 Ry     beta= 0.70
     Davidson diagonalization with overlap
     ethr =  1.00E-13,  avg # of iterations =  1.0

     total cpu time spent up to now is       87.1 secs

     End of self-consistent calculation

          k = 0.0000 0.0000 0.0000 ( 23947 PWs)   bands (ev):

   -59.9846 -59.9826 -59.9738 -59.9719 -34.0216 -34.0192 -34.0125 -34.0070
   -33.9251 -33.8721 -33.8459 -33.8161 -33.8136 -33.7953 -33.7820 -33.7795
   -13.5476 -13.4244 -12.4618 -12.3325 -12.2479 -12.2089 -11.8321 -11.8273
   -11.6701 -11.6495  -0.4241  -0.4110  -0.3651  -0.2533  -0.0803   0.3540
     1.0513   1.0929   1.3295   1.3310   1.5632   1.6010   1.8503   1.8506
     1.8872   1.9855   2.0675   2.0719   2.1805   2.2613   2.3604   2.4920
     2.5068   2.8965   3.0134   3.0402   3.0978   3.3133   3.3472   3.4084

          k = 0.0000 0.2637 0.0000 ( 24012 PWs)   bands (ev):

   -59.9845 -59.9826 -59.9738 -59.9719 -34.0233 -34.0209 -34.0156 -34.0101
   -33.9247 -33.8717 -33.8458 -33.8159 -33.8134 -33.7953 -33.7820 -33.7795
   -13.4747 -13.3620 -12.3980 -12.3051 -12.2448 -12.1902 -11.8406 -11.8183
   -11.6418 -11.6171  -0.4700  -0.4567  -0.4026  -0.2974  -0.2473   0.0283
     0.2836   0.4635   0.5052   0.6523   1.1462   1.2899   1.3470   1.7898
     1.8442   2.0567   2.2087   2.3025   2.4656   2.5269   2.6690   2.7741
     3.0228   3.0299   3.0795   3.1973   3.2159   3.4928   3.5662   3.7055

          k = 0.3332 0.0000 0.0000 ( 24024 PWs)   bands (ev):

   -59.9801 -59.9782 -59.9748 -59.9728 -34.0157 -34.0133 -34.0101 -34.0059
   -33.9214 -33.8942 -33.8814 -33.8717 -33.8259 -33.8204 -33.8048 -33.7943
   -12.9715 -12.8304 -12.3592 -12.1928 -12.1833 -12.1596 -11.7712 -11.7605
   -11.7294 -11.6864  -0.9293  -0.8532  -0.1055  -0.0985   0.0216   0.3533
     0.4817   0.8637   0.8712   1.1670   1.2008   1.2363   1.6044   1.7402
     1.7499   1.9142   1.9906   2.0098   2.0916   2.1601   2.2477   2.3013
     2.3311   2.7367   3.0233   3.1036   3.1914   3.3783   3.5589   3.6258

          k = 0.3332 0.2637 0.0000 ( 24049 PWs)   bands (ev):

   -59.9801 -59.9782 -59.9748 -59.9728 -34.0177 -34.0153 -34.0129 -34.0086
   -33.9211 -33.8940 -33.8810 -33.8715 -33.8259 -33.8204 -33.8048 -33.7943
   -12.9081 -12.7830 -12.3175 -12.1896 -12.1673 -12.1437 -11.7581 -11.7391
   -11.6609 -11.6434  -0.9315  -0.8535  -0.1739  -0.1673  -0.0999   0.1512
     0.2541   0.3923   0.4377   0.6660   0.7223   0.9436   1.2810   1.3130
     1.4214   1.4602   1.5836   1.6801   1.8410   2.2824   2.5090   2.6986
     2.9736   2.9802   3.3626   3.5567   3.5842   3.7406   3.7869   3.7923

     highest occupied level (ev):     3.7923

!    total energy              =    -922.12727235 Ry
     Harris-Foulkes estimate   =    -922.12727235 Ry
     estimated scf accuracy    <          6.1E-13 Ry

     The total energy is the sum of the following terms:

     one-electron contribution =    -591.56332672 Ry
     hartree contribution      =     335.07150303 Ry
     xc contribution           =    -174.09034650 Ry
     ewald contribution        =    -491.41471207 Ry
     Dispersion Correction     =      -0.13039010 Ry

     convergence has been achieved in  38 iterations

     Forces acting on atoms (cartesian axes, Ry/au):

     atom    1 type  1   force =     0.00000000    0.00094041   -0.00002368
     atom    2 type  1   force =     0.00000000   -0.00094041    0.00002368
     atom    3 type  1   force =     0.00000000   -0.00094041   -0.00002368
     atom    4 type  1   force =     0.00000000    0.00094041    0.00002368
     atom    5 type  2   force =    -0.00000000   -0.00028078    0.00015337
     atom    6 type  2   force =     0.00000000    0.00028078   -0.00015337
     atom    7 type  2   force =     0.00000000    0.00028078    0.00015337
     atom    8 type  2   force =     0.00000000   -0.00028078   -0.00015337
     atom    9 type  2   force =    -0.00000000   -0.00016818    0.00006233
     atom   10 type  2   force =    -0.00000000    0.00016818   -0.00006233
     atom   11 type  2   force =     0.00000000    0.00016818    0.00006233
     atom   12 type  2   force =     0.00000000    0.00041820    0.00000000
     atom   13 type  2   force =     0.00000000   -0.00041820   -0.00000000
     atom   14 type  2   force =     0.00000000   -0.00016818   -0.00006233

     Total force =     0.002104     Total SCF correction =     0.000001


     Computing stress (Cartesian axis) and pressure

          total   stress  (Ry/bohr**3)                   (kbar)     P=   -0.03
  -0.00000578   0.00000000   0.00000000         -0.85      0.00      0.00
   0.00000000   0.00001038   0.00000000          0.00      1.53      0.00
   0.00000000   0.00000000  -0.00000512          0.00      0.00     -0.75


     number of scf cycles    =   3
     number of bfgs steps    =   2

     enthalpy old            =    -922.1272699405 Ry
     enthalpy new            =    -922.1272723532 Ry

     CASE: enthalpy_new < enthalpy_old

     new trust radius        =       0.0016866272 bohr
     new conv_thr            =            1.0E-12 Ry

     new unit-cell volume =   1235.70549 a.u.^3 (   183.11266 Ang^3 )
     density =      3.29872 g/cm^3

CELL_PARAMETERS (alat=  6.68268247)
   1.000491581   0.000000000   0.000000000
   0.000000000   1.264583259   0.000000000
   0.000000000   0.000000000   3.272665609

ATOMIC_POSITIONS (crystal)
V       -0.000000000   0.382851867   0.648064513
V        0.500000002   0.617148137   0.851935492
V        0.500000002   0.617148137   0.148064512
V       -0.000000000   0.382851867   0.351935490
O        0.500000002   0.492304768   0.681314876
O        0.000000000   0.507695236   0.818685129
O        0.000000000   0.507695236   0.181314875
O        0.500000002   0.492304768   0.318685127
O       -0.000000000   0.029069971   0.354182201
O        0.500000002   0.970930033   0.145817802
O        0.500000002   0.970930033   0.854182202
O        0.500000002   0.509245838   0.000000000
O        0.000000000   0.490754166   0.500000002
O        0.000000000   0.029069971   0.645817804



     Writing output data file v2o5.save/
     NEW-OLD atomic charge density approx. for the potential
     extrapolated charge  112.02135, renormalised to  112.00000

     total cpu time spent up to now is       89.5 secs

     Self-consistent Calculation

     iteration #  1     ecut=   110.00 Ry     beta= 0.70
     Davidson diagonalization with overlap
     ethr =  1.00E-06,  avg # of iterations =  2.0

     Threshold (ethr) on eigenvalues was too large:
     Diagonalizing with lowered threshold

     Davidson diagonalization with overlap
     ethr =  2.06E-08,  avg # of iterations =  4.0

     total cpu time spent up to now is       91.6 secs

     total energy              =    -922.12714815 Ry
     Harris-Foulkes estimate   =    -922.03467795 Ry
     estimated scf accuracy    <       0.00012383 Ry

     iteration #  2     ecut=   110.00 Ry     beta= 0.70
     Davidson diagonalization with overlap
     ethr =  1.11E-07,  avg # of iterations =  5.8

     total cpu time spent up to now is       93.1 secs

     total energy              =    -922.12703375 Ry
     Harris-Foulkes estimate   =    -922.12768909 Ry
     estimated scf accuracy    <       0.00338340 Ry

     iteration #  3     ecut=   110.00 Ry     beta= 0.70
     Davidson diagonalization with overlap
     ethr =  1.11E-07,  avg # of iterations =  5.0

     total cpu time spent up to now is       94.6 secs

     total energy              =    -922.12727979 Ry
     Harris-Foulkes estimate   =    -922.12729001 Ry
     estimated scf accuracy    <       0.00007702 Ry

     iteration #  4     ecut=   110.00 Ry     beta= 0.70
     Davidson diagonalization with overlap
     ethr =  6.88E-08,  avg # of iterations =  1.0

     total cpu time spent up to now is       95.2 secs

     total energy              =    -922.12727347 Ry
     Harris-Foulkes estimate   =    -922.12728109 Ry
     estimated scf accuracy    <       0.00005452 Ry

     iteration #  5     ecut=   110.00 Ry     beta= 0.70
     Davidson diagonalization with overlap
     ethr =  4.87E-08,  avg # of iterations =  2.0

     total cpu time spent up to now is       95.8 secs

     total energy              =    -922.12727465 Ry
     Harris-Foulkes estimate   =    -922.12727525 Ry
     estimated scf accuracy    <       0.00002609 Ry

     iteration #  6     ecut=   110.00 Ry     beta= 0.70
     Davidson diagonalization with overlap
     ethr =  2.33E-08,  avg # of iterations =  2.2

     total cpu time spent up to now is       96.4 secs

     total energy              =    -922.12727574 Ry
     Harris-Foulkes estimate   =    -922.12727555 Ry
     estimated scf accuracy    <       0.00002113 Ry

     iteration #  7     ecut=   110.00 Ry     beta= 0.70
     Davidson diagonalization with overlap
     ethr =  1.89E-08,  avg # of iterations =  1.0

     total cpu time spent up to now is       97.0 secs

     total energy              =    -922.12727463 Ry
     Harris-Foulkes estimate   =    -922.12727610 Ry
     estimated scf accuracy    <       0.00001840 Ry

     iteration #  8     ecut=   110.00 Ry     beta= 0.70
     Davidson diagonalization with overlap
     ethr =  1.64E-08,  avg # of iterations =  3.0

     total cpu time spent up to now is       97.6 secs

     total energy              =    -922.12727537 Ry
     Harris-Foulkes estimate   =    -922.12727554 Ry
     estimated scf accuracy    <       0.00000966 Ry

     iteration #  9     ecut=   110.00 Ry     beta= 0.70
     Davidson diagonalization with overlap
     ethr =  8.63E-09,  avg # of iterations =  4.0

     total cpu time spent up to now is       98.4 secs

     total energy              =    -922.12727659 Ry
     Harris-Foulkes estimate   =    -922.12727648 Ry
     estimated scf accuracy    <       0.00000272 Ry

     iteration # 10     ecut=   110.00 Ry     beta= 0.70
     Davidson diagonalization with overlap
     ethr =  2.43E-09,  avg # of iterations =  4.0

     total cpu time spent up to now is       99.2 secs

     total energy              =    -922.12727689 Ry
     Harris-Foulkes estimate   =    -922.12727702 Ry
     estimated scf accuracy    <       0.00000148 Ry

     iteration # 11     ecut=   110.00 Ry     beta= 0.70
     Davidson diagonalization with overlap
     ethr =  1.32E-09,  avg # of iterations =  4.0

     total cpu time spent up to now is      100.0 secs

     total energy              =    -922.12727722 Ry
     Harris-Foulkes estimate   =    -922.12727706 Ry
     estimated scf accuracy    <       0.00000203 Ry

     iteration # 12     ecut=   110.00 Ry     beta= 0.70
     Davidson diagonalization with overlap
     ethr =  1.32E-09,  avg # of iterations =  5.0

     total cpu time spent up to now is      101.4 secs

     total energy              =    -922.12727709 Ry
     Harris-Foulkes estimate   =    -922.12728120 Ry
     estimated scf accuracy    <       0.00003672 Ry

     iteration # 13     ecut=   110.00 Ry     beta= 0.70
     Davidson diagonalization with overlap
     ethr =  1.32E-09,  avg # of iterations =  5.0

     total cpu time spent up to now is      102.7 secs

     total energy              =    -922.12727670 Ry
     Harris-Foulkes estimate   =    -922.12727849 Ry
     estimated scf accuracy    <       0.00001264 Ry

     iteration # 14     ecut=   110.00 Ry     beta= 0.70
     Davidson diagonalization with overlap
     ethr =  1.32E-09,  avg # of iterations =  4.5

     total cpu time spent up to now is      103.7 secs

     total energy              =    -922.12727576 Ry
     Harris-Foulkes estimate   =    -922.12727717 Ry
     estimated scf accuracy    <       0.00000438 Ry

     iteration # 15     ecut=   110.00 Ry     beta= 0.70
     Davidson diagonalization with overlap
     ethr =  1.32E-09,  avg # of iterations =  4.2

     total cpu time spent up to now is      104.9 secs

     total energy              =    -922.12727682 Ry
     Harris-Foulkes estimate   =    -922.12727685 Ry
     estimated scf accuracy    <       0.00000123 Ry

     iteration # 16     ecut=   110.00 Ry     beta= 0.70
     Davidson diagonalization with overlap
     ethr =  1.10E-09,  avg # of iterations =  1.0

     total cpu time spent up to now is      105.7 secs

     total energy              =    -922.12727676 Ry
     Harris-Foulkes estimate   =    -922.12727683 Ry
     estimated scf accuracy    <       0.00000116 Ry

     iteration # 17     ecut=   110.00 Ry     beta= 0.70
     Davidson diagonalization with overlap
     ethr =  1.04E-09,  avg # of iterations =  1.0

     total cpu time spent up to now is      106.4 secs

     total energy              =    -922.12727650 Ry
     Harris-Foulkes estimate   =    -922.12727676 Ry
     estimated scf accuracy    <       0.00000089 Ry

     iteration # 18     ecut=   110.00 Ry     beta= 0.70
     Davidson diagonalization with overlap
     ethr =  7.97E-10,  avg # of iterations =  4.0

     total cpu time spent up to now is      107.3 secs

     total energy              =    -922.12727668 Ry
     Harris-Foulkes estimate   =    -922.12727674 Ry
     estimated scf accuracy    <       0.00000032 Ry

     iteration # 19     ecut=   110.00 Ry     beta= 0.70
     Davidson diagonalization with overlap
     ethr =  2.82E-10,  avg # of iterations =  2.8

     total cpu time spent up to now is      108.0 secs

     total energy              =    -922.12727667 Ry
     Harris-Foulkes estimate   =    -922.12727669 Ry
     estimated scf accuracy    <       0.00000011 Ry

     iteration # 20     ecut=   110.00 Ry     beta= 0.70
     Davidson diagonalization with overlap
     ethr =  9.93E-11,  avg # of iterations =  4.0

     total cpu time spent up to now is      109.0 secs

     total energy              =    -922.12727671 Ry
     Harris-Foulkes estimate   =    -922.12727671 Ry
     estimated scf accuracy    <       0.00000003 Ry

     iteration # 21     ecut=   110.00 Ry     beta= 0.70
     Davidson diagonalization with overlap
     ethr =  3.00E-11,  avg # of iterations =  2.8

     total cpu time spent up to now is      109.6 secs

     total energy              =    -922.12727671 Ry
     Harris-Foulkes estimate   =    -922.12727671 Ry
     estimated scf accuracy    <       0.00000002 Ry

     iteration # 22     ecut=   110.00 Ry     beta= 0.70
     Davidson diagonalization with overlap
     ethr =  1.95E-11,  avg # of iterations =  1.0

     total cpu time spent up to now is      110.2 secs

     total energy              =    -922.12727671 Ry
     Harris-Foulkes estimate   =    -922.12727671 Ry
     estimated scf accuracy    <       0.00000002 Ry

     iteration # 23     ecut=   110.00 Ry     beta= 0.70
     Davidson diagonalization with overlap
     ethr =  1.44E-11,  avg # of iterations =  1.0

     total cpu time spent up to now is      110.7 secs

     total energy              =    -922.12727671 Ry
     Harris-Foulkes estimate   =    -922.12727671 Ry
     estimated scf accuracy    <       0.00000001 Ry

     iteration # 24     ecut=   110.00 Ry     beta= 0.70
     Davidson diagonalization with overlap
     ethr =  1.28E-11,  avg # of iterations =  1.0

     total cpu time spent up to now is      111.3 secs

     total energy              =    -922.12727671 Ry
     Harris-Foulkes estimate   =    -922.12727671 Ry
     estimated scf accuracy    <       0.00000001 Ry

     iteration # 25     ecut=   110.00 Ry     beta= 0.70
     Davidson diagonalization with overlap
     ethr =  1.11E-11,  avg # of iterations =  1.0

     total cpu time spent up to now is      111.9 secs

     total energy              =    -922.12727671 Ry
     Harris-Foulkes estimate   =    -922.12727671 Ry
     estimated scf accuracy    <          9.1E-09 Ry

     iteration # 26     ecut=   110.00 Ry     beta= 0.70
     Davidson diagonalization with overlap
     ethr =  8.13E-12,  avg # of iterations =  1.0

     total cpu time spent up to now is      112.4 secs

     total energy              =    -922.12727671 Ry
     Harris-Foulkes estimate   =    -922.12727671 Ry
     estimated scf accuracy    <          7.9E-09 Ry

     iteration # 27     ecut=   110.00 Ry     beta= 0.70
     Davidson diagonalization with overlap
     ethr =  7.09E-12,  avg # of iterations =  1.0

     total cpu time spent up to now is      113.0 secs

     total energy              =    -922.12727671 Ry
     Harris-Foulkes estimate   =    -922.12727671 Ry
     estimated scf accuracy    <          5.7E-09 Ry

     iteration # 28     ecut=   110.00 Ry     beta= 0.70
     Davidson diagonalization with overlap
     ethr =  5.07E-12,  avg # of iterations =  4.0

     total cpu time spent up to now is      113.8 secs

     total energy              =    -922.12727671 Ry
     Harris-Foulkes estimate   =    -922.12727671 Ry
     estimated scf accuracy    <          1.9E-10 Ry

     iteration # 29     ecut=   110.00 Ry     beta= 0.70
     Davidson diagonalization with overlap
     ethr =  1.72E-13,  avg # of iterations =  5.0

     total cpu time spent up to now is      115.1 secs

     total energy              =    -922.12727671 Ry
     Harris-Foulkes estimate   =    -922.12727671 Ry
     estimated scf accuracy    <          1.8E-09 Ry

     iteration # 30     ecut=   110.00 Ry     beta= 0.70
     Davidson diagonalization with overlap
     ethr =  1.72E-13,  avg # of iterations =  4.0

     total cpu time spent up to now is      116.0 secs

     total energy              =    -922.12727671 Ry
     Harris-Foulkes estimate   =    -922.12727671 Ry
     estimated scf accuracy    <          5.7E-10 Ry

     iteration # 31     ecut=   110.00 Ry     beta= 0.70
     Davidson diagonalization with overlap
     ethr =  1.72E-13,  avg # of iterations =  2.0

     total cpu time spent up to now is      116.6 secs

     total energy              =    -922.12727671 Ry
     Harris-Foulkes estimate   =    -922.12727671 Ry
     estimated scf accuracy    <          3.7E-10 Ry

     iteration # 32     ecut=   110.00 Ry     beta= 0.70
     Davidson diagonalization with overlap
     ethr =  1.72E-13,  avg # of iterations =  4.2

     total cpu time spent up to now is      117.7 secs

     total energy              =    -922.12727671 Ry
     Harris-Foulkes estimate   =    -922.12727671 Ry
     estimated scf accuracy    <          1.6E-10 Ry

     iteration # 33     ecut=   110.00 Ry     beta= 0.70
     Davidson diagonalization with overlap
     ethr =  1.47E-13,  avg # of iterations =  3.5

     total cpu time spent up to now is      118.5 secs

     total energy              =    -922.12727671 Ry
     Harris-Foulkes estimate   =    -922.12727671 Ry
     estimated scf accuracy    <          5.5E-12 Ry

     iteration # 34     ecut=   110.00 Ry     beta= 0.70
     Davidson diagonalization with overlap
     ethr =  1.00E-13,  avg # of iterations =  1.0

     total cpu time spent up to now is      119.1 secs

     total energy              =    -922.12727671 Ry
     Harris-Foulkes estimate   =    -922.12727671 Ry
     estimated scf accuracy    <          4.1E-12 Ry

     iteration # 35     ecut=   110.00 Ry     beta= 0.70
     Davidson diagonalization with overlap
     ethr =  1.00E-13,  avg # of iterations =  1.0

     total cpu time spent up to now is      119.6 secs

     total energy              =    -922.12727671 Ry
     Harris-Foulkes estimate   =    -922.12727671 Ry
     estimated scf accuracy    <          3.5E-12 Ry

     iteration # 36     ecut=   110.00 Ry     beta= 0.70
     Davidson diagonalization with overlap
     ethr =  1.00E-13,  avg # of iterations =  1.0

     total cpu time spent up to now is      120.2 secs

     total energy              =    -922.12727671 Ry
     Harris-Foulkes estimate   =    -922.12727671 Ry
     estimated scf accuracy    <          5.2E-12 Ry

     iteration # 37     ecut=   110.00 Ry     beta= 0.70
     Davidson diagonalization with overlap
     ethr =  1.00E-13,  avg # of iterations =  1.0

     total cpu time spent up to now is      120.8 secs

     total energy              =    -922.12727671 Ry
     Harris-Foulkes estimate   =    -922.12727671 Ry
     estimated scf accuracy    <          1.1E-11 Ry

     iteration # 38     ecut=   110.00 Ry     beta= 0.70
     Davidson diagonalization with overlap
     ethr =  1.00E-13,  avg # of iterations =  1.0

     total cpu time spent up to now is      121.4 secs

     total energy              =    -922.12727671 Ry
     Harris-Foulkes estimate   =    -922.12727671 Ry
     estimated scf accuracy    <          8.0E-12 Ry

     iteration # 39     ecut=   110.00 Ry     beta= 0.70
     Davidson diagonalization with overlap
     ethr =  1.00E-13,  avg # of iterations =  1.0

     total cpu time spent up to now is      121.9 secs

     total energy              =    -922.12727671 Ry
     Harris-Foulkes estimate   =    -922.12727671 Ry
     estimated scf accuracy    <          4.9E-12 Ry

     iteration # 40     ecut=   110.00 Ry     beta= 0.70
     Davidson diagonalization with overlap
     ethr =  1.00E-13,  avg # of iterations =  1.0

     total cpu time spent up to now is      122.5 secs

     total energy              =    -922.12727671 Ry
     Harris-Foulkes estimate   =    -922.12727671 Ry
     estimated scf accuracy    <          1.9E-12 Ry

     iteration # 41     ecut=   110.00 Ry     beta= 0.70
     Davidson diagonalization with overlap
     ethr =  1.00E-13,  avg # of iterations =  1.0

     total cpu time spent up to now is      123.0 secs

     total energy              =    -922.12727671 Ry
     Harris-Foulkes estimate   =    -922.12727671 Ry
     estimated scf accuracy    <          1.5E-12 Ry

     iteration # 42     ecut=   110.00 Ry     beta= 0.70
     Davidson diagonalization with overlap
     ethr =  1.00E-13,  avg # of iterations =  1.0

     total cpu time spent up to now is      123.6 secs

     End of self-consistent calculation

          k = 0.0000 0.0000 0.0000 ( 23947 PWs)   bands (ev):

   -59.9871 -59.9852 -59.9764 -59.9744 -34.0233 -34.0209 -34.0142 -34.0087
   -33.9280 -33.8749 -33.8487 -33.8188 -33.8163 -33.7981 -33.7847 -33.7822
   -13.5508 -13.4275 -12.4648 -12.3353 -12.2514 -12.2126 -11.8332 -11.8288
   -11.6711 -11.6509  -0.4275  -0.4144  -0.3693  -0.2570  -0.0842   0.3511
     1.0482   1.0913   1.3270   1.3282   1.5618   1.5996   1.8488   1.8491
     1.8857   1.9842   2.0650   2.0715   2.1761   2.2613   2.3589   2.4906
     2.5049   2.8931   3.0122   3.0390   3.0951   3.3120   3.3446   3.4060

          k = 0.0000 0.2636 0.0000 ( 24012 PWs)   bands (ev):

   -59.9870 -59.9851 -59.9763 -59.9744 -34.0249 -34.0225 -34.0174 -34.0118
   -33.9276 -33.8746 -33.8487 -33.8186 -33.8161 -33.7981 -33.7847 -33.7822
   -13.4782 -13.3653 -12.4013 -12.3080 -12.2484 -12.1941 -11.8418 -11.8194
   -11.6430 -11.6182  -0.4732  -0.4598  -0.4063  -0.3009  -0.2505   0.0274
     0.2813   0.4616   0.5042   0.6508   1.1455   1.2894   1.3464   1.7886
     1.8433   2.0535   2.2042   2.3000   2.4631   2.5264   2.6675   2.7732
     3.0209   3.0282   3.0762   3.1944   3.2132   3.4903   3.5633   3.7032

          k = 0.3332 0.0000 0.0000 ( 24024 PWs)   bands (ev):

   -59.9827 -59.9807 -59.9773 -59.9753 -34.0174 -34.0150 -34.0118 -34.0076
   -33.9243 -33.8970 -33.8842 -33.8745 -33.8287 -33.8231 -33.8076 -33.7971
   -12.9746 -12.8333 -12.3628 -12.1957 -12.1861 -12.1632 -11.7722 -11.7619
   -11.7302 -11.6878  -0.9329  -0.8566  -0.1096  -0.1017   0.0176   0.3508
     0.4792   0.8612   0.8679   1.1647   1.1986   1.2344   1.6018   1.7385
     1.7486   1.9122   1.9890   2.0092   2.0898   2.1589   2.2459   2.2981
     2.3304   2.7352   3.0214   3.1025   3.1897   3.3771   3.5562   3.6221

          k = 0.3332 0.2636 0.0000 ( 24049 PWs)   bands (ev):

   -59.9826 -59.9807 -59.9773 -59.9753 -34.0194 -34.0169 -34.0145 -34.0102
   -33.9240 -33.8968 -33.8838 -33.8742 -33.8286 -33.8231 -33.8076 -33.7971
   -12.9114 -12.7862 -12.3213 -12.1925 -12.1704 -12.1475 -11.7593 -11.7402
   -11.6620 -11.6445  -0.9351  -0.8569  -0.1766  -0.1708  -0.1032   0.1499
     0.2518   0.3901   0.4361   0.6645   0.7211   0.9411   1.2805   1.3104
     1.4195   1.4587   1.5826   1.6779   1.8397   2.2815   2.5060   2.6975
     2.9711   2.9782   3.3606   3.5545   3.5813   3.7382   3.7835   3.7898

     highest occupied level (ev):     3.7898

!    total energy              =    -922.12727671 Ry
     Harris-Foulkes estimate   =    -922.12727671 Ry
     estimated scf accuracy    <          7.4E-14 Ry

     The total energy is the sum of the following terms:

     one-electron contribution =    -591.71331557 Ry
     hartree contribution      =     335.13651633 Ry
     xc contribution           =    -174.08959460 Ry
     ewald contribution        =    -491.33052141 Ry
     Dispersion Correction     =      -0.13036146 Ry

     convergence has been achieved in  42 iterations

     Forces acting on atoms (cartesian axes, Ry/au):

     atom    1 type  1   force =    -0.00000000    0.00030519    0.00009452
     atom    2 type  1   force =     0.00000000   -0.00030519   -0.00009452
     atom    3 type  1   force =     0.00000000   -0.00030519    0.00009452
     atom    4 type  1   force =     0.00000000    0.00030519   -0.00009452
     atom    5 type  2   force =    -0.00000000   -0.00023800    0.00009719
     atom    6 type  2   force =     0.00000000    0.00023800   -0.00009719
     atom    7 type  2   force =     0.00000000    0.00023800    0.00009719
     atom    8 type  2   force =     0.00000000   -0.00023800   -0.00009719
     atom    9 type  2   force =     0.00000000    0.00031306    0.00005459
     atom   10 type  2   force =     0.00000000   -0.00031306   -0.00005459
     atom   11 type  2   force =    -0.00000000   -0.00031306    0.00005459
     atom   12 type  2   force =     0.00000000    0.00026556    0.00000000
     atom   13 type  2   force =     0.00000000   -0.00026556    0.00000000
[...]
        12           O   tau(  12) = (   0.5001788   0.6457873   0.0000000  )
        13           O   tau(  13) = (  -0.0000000   0.6235066   1.6354316  )
        14           O   tau(  14) = (   0.0000000   0.0389414   2.1119356  )

     number of k points=     4
                       cart. coord. in units 2pi/alat
        k(    1) = (   0.0000000   0.0000000   0.0000000), wk =   0.2222222
        k(    2) = (   0.0000000   0.2626132   0.0000000), wk =   0.4444444
        k(    3) = (   0.3332142   0.0000000   0.0000000), wk =   0.4444444
        k(    4) = (   0.3332142   0.2626132   0.0000000), wk =   0.8888889

     Dense  grid:   193109 G-vectors     FFT dimensions: (  48,  60, 150)

     Estimated max dynamical RAM per process >      21.95 MB

     Estimated total dynamical RAM >     702.47 MB

     Initial potential from superposition of free atoms

     starting charge  111.99579, renormalised to  112.00000
     Starting wfcs are   80 randomized atomic wfcs

     total cpu time spent up to now is     1053.8 secs

     Self-consistent Calculation

     iteration #  1     ecut=   110.00 Ry     beta= 0.70
     Davidson diagonalization with overlap
     ethr =  1.00E-06,  avg # of iterations =  7.8

     total cpu time spent up to now is     1058.8 secs

     total energy              =    -917.54942884 Ry
     Harris-Foulkes estimate   =    -923.64462575 Ry
     estimated scf accuracy    <       7.65137203 Ry

     iteration #  2     ecut=   110.00 Ry     beta= 0.70
     Davidson diagonalization with overlap
     ethr =  6.83E-03,  avg # of iterations =  6.2

     total cpu time spent up to now is     1062.0 secs

     total energy              =    -908.09073555 Ry
     Harris-Foulkes estimate   =    -938.35020471 Ry
     estimated scf accuracy    <     136.13365167 Ry

     iteration #  3     ecut=   110.00 Ry     beta= 0.70
     Davidson diagonalization with overlap
     ethr =  6.83E-03,  avg # of iterations =  5.8

     total cpu time spent up to now is     1064.9 secs

     total energy              =    -921.91100873 Ry
     Harris-Foulkes estimate   =    -922.67366998 Ry
     estimated scf accuracy    <       2.57480294 Ry

     iteration #  4     ecut=   110.00 Ry     beta= 0.70
     Davidson diagonalization with overlap
     ethr =  2.30E-03,  avg # of iterations =  3.8

     total cpu time spent up to now is     1066.4 secs

     total energy              =    -922.06717281 Ry
     Harris-Foulkes estimate   =    -922.20146451 Ry
     estimated scf accuracy    <       0.85731866 Ry

     iteration #  5     ecut=   110.00 Ry     beta= 0.70
     Davidson diagonalization with overlap
     ethr =  7.65E-04,  avg # of iterations =  4.0

     total cpu time spent up to now is     1067.8 secs

     total energy              =    -922.00761551 Ry
     Harris-Foulkes estimate   =    -922.13056919 Ry
     estimated scf accuracy    <       0.42883997 Ry

     iteration #  6     ecut=   110.00 Ry     beta= 0.70
     Davidson diagonalization with overlap
     ethr =  3.83E-04,  avg # of iterations =  4.0

     total cpu time spent up to now is     1069.8 secs

     total energy              =    -922.13180886 Ry
     Harris-Foulkes estimate   =    -922.14676875 Ry
     estimated scf accuracy    <       0.15959214 Ry

     iteration #  7     ecut=   110.00 Ry     beta= 0.70
     Davidson diagonalization with overlap
     ethr =  1.42E-04,  avg # of iterations =  1.8

     total cpu time spent up to now is     1070.9 secs

     total energy              =    -922.10853361 Ry
     Harris-Foulkes estimate   =    -922.13419906 Ry
     estimated scf accuracy    <       0.12181621 Ry

     iteration #  8     ecut=   110.00 Ry     beta= 0.70
     Davidson diagonalization with overlap
     ethr =  1.09E-04,  avg # of iterations =  3.5

     total cpu time spent up to now is     1072.6 secs

     total energy              =    -922.12574480 Ry
     Harris-Foulkes estimate   =    -922.12641782 Ry
     estimated scf accuracy    <       0.00242910 Ry

     iteration #  9     ecut=   110.00 Ry     beta= 0.70
     Davidson diagonalization with overlap
     ethr =  2.17E-06,  avg # of iterations =  5.8

     total cpu time spent up to now is     1074.7 secs

     total energy              =    -922.12727436 Ry
     Harris-Foulkes estimate   =    -922.12760335 Ry
     estimated scf accuracy    <       0.00253149 Ry

     iteration # 10     ecut=   110.00 Ry     beta= 0.70
     Davidson diagonalization with overlap
     ethr =  2.17E-06,  avg # of iterations =  2.2

     total cpu time spent up to now is     1076.0 secs

     total energy              =    -922.12697850 Ry
     Harris-Foulkes estimate   =    -922.12734068 Ry
     estimated scf accuracy    <       0.00159353 Ry

     iteration # 11     ecut=   110.00 Ry     beta= 0.70
     Davidson diagonalization with overlap
     ethr =  1.42E-06,  avg # of iterations =  4.0

     total cpu time spent up to now is     1077.7 secs

     total energy              =    -922.12727440 Ry
     Harris-Foulkes estimate   =    -922.12732423 Ry
     estimated scf accuracy    <       0.00017503 Ry

     iteration # 12     ecut=   110.00 Ry     beta= 0.70
     Davidson diagonalization with overlap
     ethr =  1.56E-07,  avg # of iterations =  4.5

     total cpu time spent up to now is     1079.4 secs

     total energy              =    -922.12729770 Ry
     Harris-Foulkes estimate   =    -922.12729947 Ry
     estimated scf accuracy    <       0.00003792 Ry

     iteration # 13     ecut=   110.00 Ry     beta= 0.70
     Davidson diagonalization with overlap
     ethr =  3.39E-08,  avg # of iterations =  4.2

     total cpu time spent up to now is     1081.1 secs

     total energy              =    -922.12730107 Ry
     Harris-Foulkes estimate   =    -922.12730440 Ry
     estimated scf accuracy    <       0.00002634 Ry

     iteration # 14     ecut=   110.00 Ry     beta= 0.70
     Davidson diagonalization with overlap
     ethr =  2.35E-08,  avg # of iterations =  1.5

     total cpu time spent up to now is     1082.2 secs

     total energy              =    -922.12729940 Ry
     Harris-Foulkes estimate   =    -922.12730158 Ry
     estimated scf accuracy    <       0.00001641 Ry

     iteration # 15     ecut=   110.00 Ry     beta= 0.70
     Davidson diagonalization with overlap
     ethr =  1.47E-08,  avg # of iterations =  3.8

     total cpu time spent up to now is     1083.7 secs

     total energy              =    -922.12730041 Ry
     Harris-Foulkes estimate   =    -922.12730084 Ry
     estimated scf accuracy    <       0.00000263 Ry

     iteration # 16     ecut=   110.00 Ry     beta= 0.70
     Davidson diagonalization with overlap
     ethr =  2.35E-09,  avg # of iterations =  5.5

     total cpu time spent up to now is     1085.8 secs

     total energy              =    -922.12730172 Ry
     Harris-Foulkes estimate   =    -922.12730181 Ry
     estimated scf accuracy    <       0.00000148 Ry

     iteration # 17     ecut=   110.00 Ry     beta= 0.70
     Davidson diagonalization with overlap
     ethr =  1.32E-09,  avg # of iterations =  1.0

     total cpu time spent up to now is     1087.0 secs

     total energy              =    -922.12730151 Ry
     Harris-Foulkes estimate   =    -922.12730173 Ry
     estimated scf accuracy    <       0.00000125 Ry

     iteration # 18     ecut=   110.00 Ry     beta= 0.70
     Davidson diagonalization with overlap
     ethr =  1.11E-09,  avg # of iterations =  3.5

     total cpu time spent up to now is     1088.4 secs

     total energy              =    -922.12730162 Ry
     Harris-Foulkes estimate   =    -922.12730163 Ry
     estimated scf accuracy    <       0.00000016 Ry

     iteration # 19     ecut=   110.00 Ry     beta= 0.70
     Davidson diagonalization with overlap
     ethr =  1.44E-10,  avg # of iterations =  3.8

     total cpu time spent up to now is     1089.9 secs

     total energy              =    -922.12730162 Ry
     Harris-Foulkes estimate   =    -922.12730163 Ry
     estimated scf accuracy    <       0.00000015 Ry

     iteration # 20     ecut=   110.00 Ry     beta= 0.70
     Davidson diagonalization with overlap
     ethr =  1.33E-10,  avg # of iterations =  1.0

     total cpu time spent up to now is     1091.1 secs

     total energy              =    -922.12730161 Ry
     Harris-Foulkes estimate   =    -922.12730163 Ry
     estimated scf accuracy    <       0.00000012 Ry

     iteration # 21     ecut=   110.00 Ry     beta= 0.70
     Davidson diagonalization with overlap
     ethr =  1.07E-10,  avg # of iterations =  1.5

     total cpu time spent up to now is     1092.0 secs

     total energy              =    -922.12730160 Ry
     Harris-Foulkes estimate   =    -922.12730161 Ry
     estimated scf accuracy    <       0.00000006 Ry

     iteration # 22     ecut=   110.00 Ry     beta= 0.70
     Davidson diagonalization with overlap
     ethr =  5.25E-11,  avg # of iterations =  4.5

     total cpu time spent up to now is     1093.6 secs

     total energy              =    -922.12730161 Ry
     Harris-Foulkes estimate   =    -922.12730161 Ry
     estimated scf accuracy    <          3.1E-09 Ry

     iteration # 23     ecut=   110.00 Ry     beta= 0.70
     Davidson diagonalization with overlap
     ethr =  2.79E-12,  avg # of iterations =  5.0

     total cpu time spent up to now is     1095.4 secs

     total energy              =    -922.12730161 Ry
     Harris-Foulkes estimate   =    -922.12730161 Ry
     estimated scf accuracy    <          3.9E-09 Ry

     iteration # 24     ecut=   110.00 Ry     beta= 0.70
     Davidson diagonalization with overlap
     ethr =  2.79E-12,  avg # of iterations =  1.0

     total cpu time spent up to now is     1096.6 secs

     total energy              =    -922.12730161 Ry
     Harris-Foulkes estimate   =    -922.12730161 Ry
     estimated scf accuracy    <          3.2E-09 Ry

     iteration # 25     ecut=   110.00 Ry     beta= 0.70
     Davidson diagonalization with overlap
     ethr =  2.79E-12,  avg # of iterations =  4.0

     total cpu time spent up to now is     1098.2 secs

     total energy              =    -922.12730161 Ry
     Harris-Foulkes estimate   =    -922.12730161 Ry
     estimated scf accuracy    <          2.4E-10 Ry

     iteration # 26     ecut=   110.00 Ry     beta= 0.70
     Davidson diagonalization with overlap
     ethr =  2.14E-13,  avg # of iterations =  4.5

     total cpu time spent up to now is     1099.8 secs

     total energy              =    -922.12730161 Ry
     Harris-Foulkes estimate   =    -922.12730161 Ry
     estimated scf accuracy    <          1.6E-10 Ry

     iteration # 27     ecut=   110.00 Ry     beta= 0.70
     Davidson diagonalization with overlap
     ethr =  1.47E-13,  avg # of iterations =  4.2

     total cpu time spent up to now is     1101.6 secs

     total energy              =    -922.12730161 Ry
     Harris-Foulkes estimate   =    -922.12730161 Ry
     estimated scf accuracy    <          5.7E-11 Ry

     iteration # 28     ecut=   110.00 Ry     beta= 0.70
     Davidson diagonalization with overlap
     ethr =  1.00E-13,  avg # of iterations =  1.0

     total cpu time spent up to now is     1102.7 secs

     total energy              =    -922.12730161 Ry
     Harris-Foulkes estimate   =    -922.12730161 Ry
     estimated scf accuracy    <          4.6E-11 Ry

     iteration # 29     ecut=   110.00 Ry     beta= 0.70
     Davidson diagonalization with overlap
     ethr =  1.00E-13,  avg # of iterations =  1.0

     total cpu time spent up to now is     1103.7 secs

     total energy              =    -922.12730161 Ry
     Harris-Foulkes estimate   =    -922.12730161 Ry
     estimated scf accuracy    <          2.7E-11 Ry

     iteration # 30     ecut=   110.00 Ry     beta= 0.70
     Davidson diagonalization with overlap
     ethr =  1.00E-13,  avg # of iterations =  1.0

     total cpu time spent up to now is     1104.9 secs

     total energy              =    -922.12730161 Ry
     Harris-Foulkes estimate   =    -922.12730161 Ry
     estimated scf accuracy    <          2.0E-11 Ry

     iteration # 31     ecut=   110.00 Ry     beta= 0.70
     Davidson diagonalization with overlap
     ethr =  1.00E-13,  avg # of iterations =  1.0

     total cpu time spent up to now is     1105.9 secs

     total energy              =    -922.12730161 Ry
     Harris-Foulkes estimate   =    -922.12730161 Ry
     estimated scf accuracy    <          7.9E-12 Ry

     iteration # 32     ecut=   110.00 Ry     beta= 0.70
     Davidson diagonalization with overlap
     ethr =  1.00E-13,  avg # of iterations =  1.0

     total cpu time spent up to now is     1107.1 secs

     total energy              =    -922.12730161 Ry
     Harris-Foulkes estimate   =    -922.12730161 Ry
     estimated scf accuracy    <          4.1E-12 Ry

     iteration # 33     ecut=   110.00 Ry     beta= 0.70
     Davidson diagonalization with overlap
     ethr =  1.00E-13,  avg # of iterations =  1.0

     total cpu time spent up to now is     1108.2 secs

     End of self-consistent calculation

          k = 0.0000 0.0000 0.0000 ( 24071 PWs)   bands (ev):

   -60.0214 -60.0195 -60.0107 -60.0087 -34.0581 -34.0558 -34.0489 -34.0433
   -33.9629 -33.9096 -33.8834 -33.8538 -33.8513 -33.8326 -33.8196 -33.8171
   -13.5895 -13.4668 -12.5007 -12.3733 -12.2899 -12.2500 -11.8644 -11.8613
   -11.7026 -11.6842  -0.4711  -0.4581  -0.4057  -0.2996  -0.1206   0.3069
     1.0003   1.0545   1.2850   1.2902   1.5201   1.5589   1.8041   1.8144
     1.8383   1.9442   2.0275   2.0399   2.1401   2.2303   2.3281   2.4486
     2.4760   2.8480   2.9810   3.0079   3.0596   3.2787   3.3038   3.3710

          k = 0.0000 0.2626 0.0000 ( 24146 PWs)   bands (ev):

   -60.0214 -60.0194 -60.0107 -60.0087 -34.0597 -34.0573 -34.0519 -34.0463
   -33.9625 -33.9092 -33.8834 -33.8536 -33.8511 -33.8327 -33.8196 -33.8171
   -13.5197 -13.4071 -12.4400 -12.3477 -12.2870 -12.2319 -11.8742 -11.8514
   -11.6772 -11.6516  -0.5150  -0.5017  -0.4410  -0.3421  -0.2850  -0.0001
     0.2458   0.4303   0.4791   0.6218   1.1235   1.2569   1.3144   1.7586
     1.8132   2.0173   2.1674   2.2627   2.4239   2.4910   2.6300   2.7384
     2.9861   2.9923   3.0306   3.1530   3.1736   3.4475   3.5205   3.6575

          k = 0.3332 0.0000 0.0000 ( 24182 PWs)   bands (ev):

   -60.0170 -60.0150 -60.0116 -60.0096 -34.0522 -34.0498 -34.0466 -34.0423
   -33.9592 -33.9320 -33.9190 -33.9095 -33.8635 -33.8580 -33.8423 -33.8317
   -13.0128 -12.8725 -12.3989 -12.2356 -12.2253 -12.2009 -11.8031 -11.7942
   -11.7597 -11.7199  -0.9739  -0.8971  -0.1448  -0.1424  -0.0190   0.3125
     0.4400   0.8180   0.8236   1.1223   1.1590   1.1968   1.5628   1.6996
     1.7132   1.8701   1.9397   1.9777   2.0428   2.1304   2.1980   2.2565
     2.2988   2.6952   2.9876   3.0727   3.1571   3.3463   3.5227   3.5842

          k = 0.3332 0.2626 0.0000 ( 24165 PWs)   bands (ev):

   -60.0170 -60.0150 -60.0116 -60.0096 -34.0541 -34.0516 -34.0491 -34.0448
   -33.9589 -33.9318 -33.9186 -33.9093 -33.8635 -33.8580 -33.8424 -33.8317
   -12.9521 -12.8274 -12.3593 -12.2326 -12.2100 -12.1855 -11.7923 -11.7728
   -11.6956 -11.6772  -0.9760  -0.8974  -0.2145  -0.2043  -0.1372   0.1208
     0.2180   0.3550   0.4074   0.6362   0.6956   0.9010   1.2583   1.2762
     1.3845   1.4292   1.5534   1.6465   1.8049   2.2447   2.4670   2.6622
     2.9281   2.9418   3.3149   3.5112   3.5379   3.6942   3.7425   3.7490

     highest occupied level (ev):     3.7490

!    total energy              =    -922.12730161 Ry
     Harris-Foulkes estimate   =    -922.12730161 Ry
     estimated scf accuracy    <          8.2E-13 Ry

     The total energy is the sum of the following terms:

     one-electron contribution =    -594.21062016 Ry
     hartree contribution      =     336.23655156 Ry
     xc contribution           =    -174.08947871 Ry
     ewald contribution        =    -489.93383005 Ry
     Dispersion Correction     =      -0.12992426 Ry

     convergence has been achieved in  33 iterations

     Forces acting on atoms (cartesian axes, Ry/au):

     atom    1 type  1   force =     0.00000000   -0.00001322   -0.00000261
     atom    2 type  1   force =     0.00000000    0.00001322    0.00000261
     atom    3 type  1   force =     0.00000000    0.00001322   -0.00000261
     atom    4 type  1   force =     0.00000000   -0.00001322    0.00000261
     atom    5 type  2   force =    -0.00000000    0.00000303   -0.00000918
     atom    6 type  2   force =     0.00000000   -0.00000303    0.00000918
     atom    7 type  2   force =     0.00000000   -0.00000303   -0.00000918
     atom    8 type  2   force =    -0.00000000    0.00000303    0.00000918
     atom    9 type  2   force =    -0.00000000    0.00001899   -0.00000735
     atom   10 type  2   force =    -0.00000000   -0.00001899    0.00000735
     atom   11 type  2   force =     0.00000000   -0.00001899   -0.00000735
     atom   12 type  2   force =     0.00000000    0.00000316    0.00000000
     atom   13 type  2   force =     0.00000000   -0.00000316    0.00000000
     atom   14 type  2   force =     0.00000000    0.00001899    0.00000735

     Total force =     0.000053     Total SCF correction =     0.000002


     Computing stress (Cartesian axis) and pressure

          total   stress  (Ry/bohr**3)                   (kbar)     P=   -0.01
  -0.00000002   0.00000000   0.00000000         -0.00      0.00      0.00
   0.00000000  -0.00000016   0.00000000          0.00     -0.02      0.00
   0.00000000   0.00000000   0.00000004          0.00      0.00      0.01


     Writing output data file v2o5.save/

     init_run     :      2.38s CPU      2.40s WALL (       2 calls)
     electrons    :   1005.27s CPU   1018.17s WALL (      28 calls)
     update_pot   :     23.26s CPU     23.32s WALL (      26 calls)
     forces       :     25.35s CPU     25.64s WALL (      28 calls)
     stress       :     39.72s CPU     39.89s WALL (      28 calls)

     Called by init_run:
     wfcinit      :      1.12s CPU      1.13s WALL (       2 calls)
     potinit      :      0.40s CPU      0.40s WALL (       2 calls)
     hinit0       :      0.77s CPU      0.78s WALL (       2 calls)

     Called by electrons:
     c_bands      :    941.75s CPU    952.48s WALL (     839 calls)
     sum_band     :     49.86s CPU     50.70s WALL (     839 calls)
     v_of_rho     :      7.95s CPU      8.64s WALL (     846 calls)
     mix_rho      :      3.95s CPU      4.14s WALL (     839 calls)

     Called by c_bands:
     init_us_2    :     13.25s CPU     13.63s WALL (    6944 calls)
     cegterg      :    901.16s CPU    911.15s WALL (    3356 calls)

     Called by sum_band:

     Called by *egterg:
     h_psi        :    546.07s CPU    552.05s WALL (   13021 calls)
     g_psi        :      1.63s CPU      1.63s WALL (    9657 calls)
     cdiaghg      :     96.97s CPU     99.29s WALL (   12825 calls)

     Called by h_psi:
     h_psi:pot    :    544.46s CPU    550.39s WALL (   13021 calls)
     h_psi:calbec :    188.89s CPU    191.36s WALL (   13021 calls)
     vloc_psi     :    201.90s CPU    204.83s WALL (   13021 calls)
     add_vuspsi   :    153.59s CPU    154.15s WALL (   13021 calls)

     General routines
     calbec       :    200.87s CPU    203.56s WALL (   13581 calls)
     fft          :      7.29s CPU      7.89s WALL (    9179 calls)
     ffts         :      0.67s CPU      0.71s WALL (     839 calls)
     fftw         :    218.57s CPU    221.62s WALL ( 1146804 calls)

     Parallel routines
     fft_scatt_xy :     17.95s CPU     18.20s WALL ( 1156822 calls)
     fft_scatt_yz :    121.43s CPU    123.64s WALL ( 1156822 calls)

     PWSCF        :  18m16.89s CPU  18m30.66s WALL


   This run was terminated on:  23: 4:12  17May2024            

=------------------------------------------------------------------------------=
   JOB DONE.
=------------------------------------------------------------------------------=
