
     Program PWSCF v.6.4.1 starts on 10Mar2024 at 19: 9:26 

     This program is part of the open-source Quantum ESPRESSO suite
     for quantum simulation of materials; please cite
         "P. Giannozzi et al., J. Phys.:Condens. Matter 21 395502 (2009);
         "P. Giannozzi et al., J. Phys.:Condens. Matter 29 465901 (2017);
          URL http://www.quantum-espresso.org", 
     in publications or presentations arising from this work. More details at
     http://www.quantum-espresso.org/quote

     Parallel version (MPI), running on    16 processors

     MPI processes distributed on     1 nodes
     R & G space division:  proc/nbgrp/npool/nimage =      16
     Reading input from v16o40.rlx.in

     Current dimensions of program PWSCF are:
     Max number of different atomic species (ntypx) = 10
     Max number of k-points (npk) =  40000
     Max angular momentum in pseudopotentials (lmaxx) =  3

     IMPORTANT: XC functional enforced from input :
     Exchange-correlation      = VDW-DF ( 1  4  4  0 1 0)
     Any further DFT definition will be discarded
     Please, verify this is what you really want

               file V.pbesol-spnl-kjpaw_psl.1.0.0.UPF: wavefunction(s)  3P 3D renormalized
               file O.pbesol-n-kjpaw_psl.1.0.0.UPF: wavefunction(s)  2S 2P renormalized

     Subspace diagonalization in iterative solution of the eigenvalue problem:
     one sub-group per band group will be used
     ELPA distributed-memory algorithm (size of sub-group:  2*  2 procs)

     Found symmetry operation: I + ( -0.0000 -0.5000  0.0000)
     This is a supercell, fractional translations are disabled
     Message from routine setup:
     DEPRECATED: symmetry with ibrav=0, use correct ibrav instead

     Parallelization info
     --------------------
     sticks:   dense  smooth     PW     G-vecs:    dense   smooth      PW
     Min         420     168     46                39330     9952    1454
     Max         421     169     48                39333     9957    1455
     Sum        6729    2697    749               629305   159273   23271



     bravais-lattice index     =            0
     lattice parameter (alat)  =      13.5330  a.u.
     unit-cell volume          =    4659.2488 (a.u.)^3
     number of atoms/cell      =           56
     number of atomic types    =            2
     number of electrons       =       448.00
     number of Kohn-Sham states=          269
     kinetic-energy cutoff     =      40.0000  Ry
     charge density cutoff     =     400.0000  Ry
     convergence threshold     =      1.0E-06
     mixing beta               =       0.4000
     number of iterations used =            8  plain     mixing
     Exchange-correlation      = VDW-DF ( 1  4  4  0 1 0)
     nstep                     =          500


     celldm(1)=  13.532985  celldm(2)=   0.000000  celldm(3)=   0.000000
     celldm(4)=   0.000000  celldm(5)=   0.000000  celldm(6)=   0.000000

     crystal axes: (cart. coord. in units of alat)
               a(1) = (   1.000000  -0.000000   0.000000 )  
               a(2) = (  -0.000000   1.153628   0.000000 )  
               a(3) = (   0.000000   0.000000   1.629556 )  

     reciprocal axes: (cart. coord. in units 2 pi/alat)
               b(1) = (  1.000000  0.000000 -0.000000 )  
               b(2) = (  0.000000  0.866831 -0.000000 )  
               b(3) = ( -0.000000 -0.000000  0.613664 )  


     PseudoPot. # 1 for V  read from file:
     /home/mpicuntureo/pseudos/V.pbesol-spnl-kjpaw_psl.1.0.0.UPF
     MD5 check sum: d709b3179d4cab0f72010db8785d50db
     Pseudo is Projector augmented-wave + core cor, Zval = 13.0
     Generated using "atomic" code by A. Dal Corso v.6.3
     Shape of augmentation charge: PSQ
     Using radial grid of 1181 points,  6 beta functions with: 
                l(1) =   0
                l(2) =   0
                l(3) =   1
                l(4) =   1
                l(5) =   2
                l(6) =   2
     Q(r) pseudized with 0 coefficients 


     PseudoPot. # 2 for O  read from file:
     /home/mpicuntureo/pseudos/O.pbesol-n-kjpaw_psl.1.0.0.UPF
     MD5 check sum: cb766521a97cf798d01896eaf7ac9a0a
     Pseudo is Projector augmented-wave + core cor, Zval =  6.0
     Generated using "atomic" code by A. Dal Corso v.6.3
     Shape of augmentation charge: PSQ
     Using radial grid of 1095 points,  4 beta functions with: 
                l(1) =   0
                l(2) =   0
                l(3) =   1
                l(4) =   1
     Q(r) pseudized with 0 coefficients 


     vdW kernel table read from file vdW_kernel_table
     MD5 check sum: 8c4337f4b28e1601c069d7ef7b6561bc

     atomic species   valence    mass     pseudopotential
        V             13.00    50.94150     V ( 1.00)
        O              6.00    15.99940     O ( 1.00)

      2 Sym. Ops. (no inversion) found



   Cartesian axes

     site n.     atom                  positions (alat units)
         1           V   tau(   1) = (   0.1548513   0.2210409   0.2423034  )
         2           V   tau(   2) = (   0.4048513   0.3472013   0.5724700  )
         3           V   tau(   3) = (   0.4048513   0.3472013   1.0570860  )
         4           V   tau(   4) = (   0.1548513   0.2210409   1.3872527  )
         5           O   tau(   5) = (   0.1548552   0.2800035   0.0000000  )
         6           O   tau(   6) = (   0.1548525  -0.0052330   0.2376924  )
         7           O   tau(   7) = (   0.4048544   0.2831581   0.2928758  )
         8           O   tau(   8) = (   0.1548545   0.2850854   0.5219019  )
         9           O   tau(   9) = (   0.4048529   0.5734746   0.5770840  )
        10           O   tau(  10) = (   0.4048556   0.2882351   0.8147780  )
        11           O   tau(  11) = (   0.4048529   0.5734746   1.0524720  )
        12           O   tau(  12) = (   0.1548545   0.2850854   1.1076541  )
        13           O   tau(  13) = (   0.4048544   0.2831581   1.3366802  )
        14           O   tau(  14) = (   0.1548525  -0.0052330   1.3918637  )
        15           V   tau(  15) = (   0.1548512   0.7978550   0.2423034  )
        16           V   tau(  16) = (   0.4048512   0.9240153   0.5724700  )
        17           V   tau(  17) = (   0.4048512   0.9240153   1.0570860  )
        18           V   tau(  18) = (   0.1548512   0.7978550   1.3872527  )
        19           O   tau(  19) = (   0.1548550   0.8568175   0.0000000  )
        20           O   tau(  20) = (   0.1548523   0.5715810   0.2376924  )
        21           O   tau(  21) = (   0.4048543   0.8599721   0.2928758  )
        22           O   tau(  22) = (   0.1548544   0.8618995   0.5219019  )
        23           O   tau(  23) = (   0.4048528   1.1502886   0.5770840  )
        24           O   tau(  24) = (   0.4048555   0.8650491   0.8147780  )
        25           O   tau(  25) = (   0.4048528   1.1502886   1.0524720  )
        26           O   tau(  26) = (   0.1548544   0.8618995   1.1076541  )
        27           O   tau(  27) = (   0.4048543   0.8599721   1.3366802  )
        28           O   tau(  28) = (   0.1548523   0.5715810   1.3918637  )
        29           V   tau(  29) = (   0.6548513   0.2210408   0.2423034  )
        30           V   tau(  30) = (   0.9048513   0.3472012   0.5724700  )
        31           V   tau(  31) = (   0.9048513   0.3472012   1.0570860  )
        32           V   tau(  32) = (   0.6548513   0.2210408   1.3872527  )
        33           O   tau(  33) = (   0.6548552   0.2800034   0.0000000  )
        34           O   tau(  34) = (   0.6548525  -0.0052331   0.2376924  )
        35           O   tau(  35) = (   0.9048544   0.2831580   0.2928758  )
        36           O   tau(  36) = (   0.6548545   0.2850853   0.5219019  )
        37           O   tau(  37) = (   0.9048529   0.5734745   0.5770840  )
        38           O   tau(  38) = (   0.9048556   0.2882350   0.8147780  )
        39           O   tau(  39) = (   0.9048529   0.5734745   1.0524720  )
        40           O   tau(  40) = (   0.6548545   0.2850853   1.1076541  )
        41           O   tau(  41) = (   0.9048544   0.2831580   1.3366802  )
        42           O   tau(  42) = (   0.6548525  -0.0052331   1.3918637  )
        43           V   tau(  43) = (   0.6548512   0.7978549   0.2423034  )
        44           V   tau(  44) = (   0.9048512   0.9240152   0.5724700  )
        45           V   tau(  45) = (   0.9048512   0.9240152   1.0570860  )
        46           V   tau(  46) = (   0.6548512   0.7978549   1.3872527  )
        47           O   tau(  47) = (   0.6548550   0.8568174   0.0000000  )
        48           O   tau(  48) = (   0.6548523   0.5715809   0.2376924  )
        49           O   tau(  49) = (   0.9048543   0.8599720   0.2928758  )
        50           O   tau(  50) = (   0.6548544   0.8618994   0.5219019  )
        51           O   tau(  51) = (   0.9048528   1.1502885   0.5770840  )
        52           O   tau(  52) = (   0.9048555   0.8650490   0.8147780  )
        53           O   tau(  53) = (   0.9048528   1.1502885   1.0524720  )
        54           O   tau(  54) = (   0.6548544   0.8618994   1.1076541  )
        55           O   tau(  55) = (   0.9048543   0.8599720   1.3366802  )
        56           O   tau(  56) = (   0.6548523   0.5715809   1.3918637  )

     number of k points=     8  gaussian smearing, width (Ry)=  0.1000
                       cart. coord. in units 2pi/alat
        k(    1) = (   0.0000000   0.0000000   0.0000000), wk =   0.2500000
        k(    2) = (   0.0000000   0.0000000  -0.3068320), wk =   0.2500000
        k(    3) = (  -0.0000001  -0.4334153   0.0000000), wk =   0.2500000
        k(    4) = (  -0.0000001  -0.4334153  -0.3068320), wk =   0.2500000
        k(    5) = (  -0.5000000  -0.0000001   0.0000000), wk =   0.2500000
        k(    6) = (  -0.5000000  -0.0000001  -0.3068320), wk =   0.2500000
        k(    7) = (  -0.5000001  -0.4334154   0.0000000), wk =   0.2500000
        k(    8) = (  -0.5000001  -0.4334154  -0.3068320), wk =   0.2500000

     Dense  grid:   629305 G-vectors     FFT dimensions: (  90, 100, 144)

     Smooth grid:   159273 G-vectors     FFT dimensions: (  60,  64,  90)

     Estimated max dynamical RAM per process >     299.08 MB

     Estimated total dynamical RAM >       4.67 GB

     Check: negative core charge=   -0.000007

     Initial potential from superposition of free atoms

     starting charge  447.98644, renormalised to  448.00000


     %%%%%%%%%%%%%%%%%%%%%%%%%%%%%%%%%%%%%%%%%%%%%%%%%%%%%%%%%%%%%%%%%%%%%%%%
     %                                                                      %
     % You are using vdW-DF, which was implemented by the Thonhauser group. %
     % Please cite the following two papers that made this development      %
     % possible and the two reviews that describe the various versions:     %
     %                                                                      %
     %   T. Thonhauser et al., PRL 115, 136402 (2015).                      %
     %   T. Thonhauser et al., PRB 76, 125112 (2007).                       %
     %   K. Berland et al., Rep. Prog. Phys. 78, 066501 (2015).             %
     %   D.C. Langreth et al., J. Phys.: Condens. Matter 21, 084203 (2009). %
     %                                                                      %
     %                                                                      %
     % If you are calculating the stress with vdW-DF, please also cite:     %
     %                                                                      %
     %   R. Sabatini et al., J. Phys.: Condens. Matter 24, 424209 (2012).   %
     %                                                                      %
     %%%%%%%%%%%%%%%%%%%%%%%%%%%%%%%%%%%%%%%%%%%%%%%%%%%%%%%%%%%%%%%%%%%%%%%%


     Starting wfcs are  320 randomized atomic wfcs
     Checking if some PAW data can be deallocated... 

     total cpu time spent up to now is       96.1 secs

     Self-consistent Calculation

     iteration #  1     ecut=    40.00 Ry     beta= 0.40
     Davidson diagonalization with overlap
     ethr =  1.00E-02,  avg # of iterations =  2.0

     total cpu time spent up to now is      302.0 secs

     total energy              =   -5129.09864882 Ry
     Harris-Foulkes estimate   =   -5151.95340172 Ry
     estimated scf accuracy    <      39.89481093 Ry

     iteration #  2     ecut=    40.00 Ry     beta= 0.40
     Davidson diagonalization with overlap
     ethr =  8.91E-03,  avg # of iterations =  4.5

     total cpu time spent up to now is      756.8 secs

     total energy              =   -5113.11302883 Ry
     Harris-Foulkes estimate   =   -5168.69600516 Ry
     estimated scf accuracy    <     302.51818033 Ry

     iteration #  3     ecut=    40.00 Ry     beta= 0.40
     Davidson diagonalization with overlap
     ethr =  8.91E-03,  avg # of iterations =  5.0

     total cpu time spent up to now is     1128.5 secs

     total energy              =   -5145.69200579 Ry
     Harris-Foulkes estimate   =   -5147.00583058 Ry
     estimated scf accuracy    <       8.60189182 Ry

     iteration #  4     ecut=    40.00 Ry     beta= 0.40
     Davidson diagonalization with overlap
     ethr =  1.92E-03,  avg # of iterations =  1.0

     negative rho (up, down):  2.204E-04 0.000E+00

     total cpu time spent up to now is     1323.3 secs

     total energy              =   -5145.40882989 Ry
     Harris-Foulkes estimate   =   -5145.95812070 Ry
     estimated scf accuracy    <       3.38343729 Ry

     iteration #  5     ecut=    40.00 Ry     beta= 0.40
     Davidson diagonalization with overlap
     ethr =  7.55E-04,  avg # of iterations =  1.9

     negative rho (up, down):  1.378E-03 0.000E+00

     total cpu time spent up to now is     1529.4 secs

     total energy              =   -5145.43572108 Ry
     Harris-Foulkes estimate   =   -5145.60093045 Ry
     estimated scf accuracy    <       0.59916865 Ry

     iteration #  6     ecut=    40.00 Ry     beta= 0.40
     Davidson diagonalization with overlap
     ethr =  1.34E-04,  avg # of iterations =  5.2

     negative rho (up, down):  1.600E-03 0.000E+00

     total cpu time spent up to now is     2067.4 secs

     total energy              =   -5145.73766202 Ry
     Harris-Foulkes estimate   =   -5145.85000463 Ry
     estimated scf accuracy    <       0.85031179 Ry

     iteration #  7     ecut=    40.00 Ry     beta= 0.40
     Davidson diagonalization with overlap
     ethr =  1.34E-04,  avg # of iterations =  1.0

     negative rho (up, down):  1.714E-03 0.000E+00

     total cpu time spent up to now is     2231.8 secs

     total energy              =   -5145.76154114 Ry
     Harris-Foulkes estimate   =   -5145.76811079 Ry
     estimated scf accuracy    <       0.19586215 Ry

     iteration #  8     ecut=    40.00 Ry     beta= 0.40
     Davidson diagonalization with overlap
     ethr =  4.37E-05,  avg # of iterations =  2.5

     negative rho (up, down):  1.931E-03 0.000E+00

     total cpu time spent up to now is     2430.1 secs

     total energy              =   -5145.77261877 Ry
     Harris-Foulkes estimate   =   -5145.76759285 Ry
     estimated scf accuracy    <       0.15521032 Ry

     iteration #  9     ecut=    40.00 Ry     beta= 0.40
     Davidson diagonalization with overlap
     ethr =  3.46E-05,  avg # of iterations =  1.0

     negative rho (up, down):  2.116E-03 0.000E+00

     total cpu time spent up to now is     2592.9 secs

     total energy              =   -5145.76918579 Ry
     Harris-Foulkes estimate   =   -5145.77935753 Ry
     estimated scf accuracy    <       0.20679018 Ry

     iteration # 10     ecut=    40.00 Ry     beta= 0.40
     Davidson diagonalization with overlap
     ethr =  3.46E-05,  avg # of iterations =  1.0

     negative rho (up, down):  2.082E-03 0.000E+00

     total cpu time spent up to now is     2792.8 secs

     total energy              =   -5145.74998186 Ry
     Harris-Foulkes estimate   =   -5145.77351959 Ry
     estimated scf accuracy    <       0.12385413 Ry

     iteration # 11     ecut=    40.00 Ry     beta= 0.40
     Davidson diagonalization with overlap
     ethr =  2.76E-05,  avg # of iterations =  3.1

     negative rho (up, down):  2.141E-03 0.000E+00

     total cpu time spent up to now is     2998.0 secs

     total energy              =   -5145.75903290 Ry
     Harris-Foulkes estimate   =   -5145.76025181 Ry
     estimated scf accuracy    <       0.00851061 Ry

     iteration # 12     ecut=    40.00 Ry     beta= 0.40
     Davidson diagonalization with overlap
     ethr =  1.90E-06,  avg # of iterations =  6.4

     negative rho (up, down):  2.219E-03 0.000E+00

     total cpu time spent up to now is     3673.0 secs

     total energy              =   -5145.76993883 Ry
     Harris-Foulkes estimate   =   -5145.77232000 Ry
     estimated scf accuracy    <       0.02014646 Ry

     iteration # 13     ecut=    40.00 Ry     beta= 0.40
     Davidson diagonalization with overlap
     ethr =  1.90E-06,  avg # of iterations =  1.0

     negative rho (up, down):  2.288E-03 0.000E+00

     total cpu time spent up to now is     3863.3 secs

     total energy              =   -5145.77018565 Ry
     Harris-Foulkes estimate   =   -5145.77051003 Ry
     estimated scf accuracy    <       0.00607802 Ry

     iteration # 14     ecut=    40.00 Ry     beta= 0.40
     Davidson diagonalization with overlap
     ethr =  1.36E-06,  avg # of iterations =  1.8

     negative rho (up, down):  2.346E-03 0.000E+00

     total cpu time spent up to now is     4065.2 secs

     total energy              =   -5145.76991988 Ry
     Harris-Foulkes estimate   =   -5145.77038886 Ry
     estimated scf accuracy    <       0.00337055 Ry

     iteration # 15     ecut=    40.00 Ry     beta= 0.40
     Davidson diagonalization with overlap
     ethr =  7.52E-07,  avg # of iterations =  5.6

     negative rho (up, down):  2.374E-03 0.000E+00

     total cpu time spent up to now is     4342.6 secs

     total energy              =   -5145.77031812 Ry
     Harris-Foulkes estimate   =   -5145.77034395 Ry
     estimated scf accuracy    <       0.00022894 Ry

     iteration # 16     ecut=    40.00 Ry     beta= 0.40
     Davidson diagonalization with overlap
     ethr =  5.11E-08,  avg # of iterations =  6.2

     negative rho (up, down):  2.414E-03 0.000E+00

     total cpu time spent up to now is     5009.5 secs

     total energy              =   -5145.77056650 Ry
     Harris-Foulkes estimate   =   -5145.77060198 Ry
     estimated scf accuracy    <       0.00038046 Ry

     iteration # 17     ecut=    40.00 Ry     beta= 0.40
     Davidson diagonalization with overlap
     ethr =  5.11E-08,  avg # of iterations =  2.0

     negative rho (up, down):  2.413E-03 0.000E+00

     total cpu time spent up to now is     5201.8 secs

     total energy              =   -5145.77057344 Ry
     Harris-Foulkes estimate   =   -5145.77058392 Ry
     estimated scf accuracy    <       0.00009953 Ry

     iteration # 18     ecut=    40.00 Ry     beta= 0.40
     Davidson diagonalization with overlap
     ethr =  2.22E-08,  avg # of iterations =  4.4

     negative rho (up, down):  2.419E-03 0.000E+00

     total cpu time spent up to now is     5449.0 secs

     total energy              =   -5145.77057635 Ry
     Harris-Foulkes estimate   =   -5145.77058494 Ry
     estimated scf accuracy    <       0.00009255 Ry

     iteration # 19     ecut=    40.00 Ry     beta= 0.40
     Davidson diagonalization with overlap
     ethr =  2.07E-08,  avg # of iterations =  3.9

     negative rho (up, down):  2.428E-03 0.000E+00

     total cpu time spent up to now is     5653.2 secs

     total energy              =   -5145.77057738 Ry
     Harris-Foulkes estimate   =   -5145.77058389 Ry
     estimated scf accuracy    <       0.00004631 Ry

     iteration # 20     ecut=    40.00 Ry     beta= 0.40
     Davidson diagonalization with overlap
     ethr =  1.03E-08,  avg # of iterations =  5.9

     negative rho (up, down):  2.432E-03 0.000E+00

     total cpu time spent up to now is     5934.7 secs

     total energy              =   -5145.77058686 Ry
     Harris-Foulkes estimate   =   -5145.77058705 Ry
     estimated scf accuracy    <       0.00001086 Ry

     iteration # 21     ecut=    40.00 Ry     beta= 0.40
     Davidson diagonalization with overlap
     ethr =  2.42E-09,  avg # of iterations =  6.1

     negative rho (up, down):  2.435E-03 0.000E+00

     total cpu time spent up to now is     6200.5 secs

     total energy              =   -5145.77058704 Ry
     Harris-Foulkes estimate   =   -5145.77058841 Ry
     estimated scf accuracy    <       0.00001145 Ry

     iteration # 22     ecut=    40.00 Ry     beta= 0.40
     Davidson diagonalization with overlap
     ethr =  2.42E-09,  avg # of iterations =  2.2

     negative rho (up, down):  2.437E-03 0.000E+00

     total cpu time spent up to now is     6356.7 secs

     total energy              =   -5145.77058760 Ry
     Harris-Foulkes estimate   =   -5145.77058769 Ry
     estimated scf accuracy    <       0.00000327 Ry

     iteration # 23     ecut=    40.00 Ry     beta= 0.40
     Davidson diagonalization with overlap
     ethr =  7.30E-10,  avg # of iterations =  6.8

     negative rho (up, down):  2.437E-03 0.000E+00

     total cpu time spent up to now is     6608.3 secs

     total energy              =   -5145.77058736 Ry
     Harris-Foulkes estimate   =   -5145.77058782 Ry
     estimated scf accuracy    <       0.00000248 Ry

     iteration # 24     ecut=    40.00 Ry     beta= 0.40
     Davidson diagonalization with overlap
     ethr =  5.53E-10,  avg # of iterations =  5.8

     negative rho (up, down):  2.439E-03 0.000E+00

     total cpu time spent up to now is     6829.7 secs

     End of self-consistent calculation

          k = 0.0000 0.0000 0.0000 ( 19937 PWs)   bands (ev):

   -59.4302 -59.4297 -59.4285 -59.4280 -59.4225 -59.4223 -59.4220 -59.4219
   -59.4209 -59.4207 -59.4204 -59.4203 -59.4186 -59.4182 -59.4169 -59.4165
   -33.3952 -33.3928 -33.3875 -33.3864 -33.3864 -33.3850 -33.3845 -33.3845
   -33.3843 -33.3816 -33.3743 -33.3742 -33.3737 -33.3737 -33.3721 -33.3709
   -33.2996 -33.2983 -33.2926 -33.2926 -33.2922 -33.2921 -33.2658 -33.2657
   -33.2654 -33.2653 -33.2547 -33.2519 -33.2258 -33.2234 -33.2019 -33.2019
   -33.2005 -33.2005 -33.1939 -33.1935 -33.1921 -33.1916 -33.1802 -33.1801
   -33.1796 -33.1792 -33.1791 -33.1780 -33.1576 -33.1566 -33.1556 -33.1541
   -13.0559 -12.9159 -12.8760 -12.7604 -12.1178 -12.1177 -12.0654 -11.9933
   -11.9932 -11.9472 -11.9032 -11.9031 -11.8969 -11.8670 -11.8485 -11.8485
   -11.8185 -11.7977 -11.7283 -11.6861 -11.6649 -11.6649 -11.6221 -11.6219
   -11.3887 -11.3641 -11.3640 -11.3606 -11.3431 -11.3033 -11.2875 -11.2874
   -11.2723 -11.2040 -11.1795 -11.1792 -11.1412 -11.1409 -11.1235 -11.0806
     0.0172   0.0173   0.0581   0.0582   0.1833   0.1834   0.1981   0.1982
     0.2052   0.2702   0.2861   0.3114   0.3559   0.3708   0.4442   0.4576
     0.4737   0.5397   0.5400   0.5567   0.5734   0.6541   0.6543   0.6602
     0.7069   0.7974   0.7974   0.8578   0.8578   0.9803   0.9804   0.9804
     1.1135   1.1729   1.2195   1.2197   1.2457   1.4313   1.4313   1.4452
     1.4454   1.7775   1.8668   1.8918   1.9171   1.9301   2.0286   2.0286
     2.0402   2.0403   2.1439   2.1440   2.1552   2.2536   2.2536   2.2540
     2.2871   2.2872   2.3001   2.3057   2.3058   2.4888   2.5180   2.5966
     2.7000   2.7011   2.7603   2.7882   2.8075   2.8219   2.8219   2.8630
     2.8635   2.8959   2.8960   2.9507   2.9814   2.9816   2.9889   3.0090
     3.0229   3.1750   3.2026   3.3171   3.3173   3.3284   3.3444   3.3487
     3.3992   3.3993   3.4912   3.5608   3.5731   3.6073   3.6184   3.6185
     3.6610   3.6610   3.7099   3.7219   3.7236   3.7271   3.8228   3.8320
     3.8320   3.8335   3.9268   3.9517   4.0004   4.0175   4.0176   4.3101
     4.5389   4.5453   4.5453   4.6372   4.6373   4.7294   4.8248   4.8248
     6.4964   6.5700   6.6975   6.8098   6.9805   6.9805   7.0814   7.0814
     7.6315   7.6315   7.7318   7.8111   7.8124   7.8124   7.8272   7.9265
     7.9266   7.9778   7.9829   7.9858   8.0043   8.0044   8.1296   8.1646
     8.2456   8.2708   8.2709   8.2827   8.2852   8.2948   8.2949   8.5703
     8.5703   8.6163   8.6416   8.6416   8.6758   8.6758   8.7266   8.8015
     8.8090   8.8091   8.8430   8.9162   8.9202

          k = 0.0000 0.0000-0.3068 ( 19884 PWs)   bands (ev):

   -59.4294 -59.4294 -59.4289 -59.4289 -59.4224 -59.4222 -59.4219 -59.4218
   -59.4208 -59.4206 -59.4203 -59.4203 -59.4177 -59.4177 -59.4173 -59.4173
   -33.3943 -33.3943 -33.3855 -33.3855 -33.3849 -33.3848 -33.3832 -33.3830
   -33.3827 -33.3825 -33.3744 -33.3743 -33.3743 -33.3743 -33.3727 -33.3726
   -33.2922 -33.2921 -33.2915 -33.2915 -33.2829 -33.2828 -33.2825 -33.2824
   -33.2658 -33.2657 -33.2645 -33.2645 -33.2006 -33.2005 -33.1999 -33.1999
   -33.1960 -33.1959 -33.1956 -33.1955 -33.1932 -33.1931 -33.1926 -33.1926
   -33.1798 -33.1798 -33.1788 -33.1788 -33.1563 -33.1563 -33.1551 -33.1550
   -12.9917 -12.9917 -12.8219 -12.8218 -12.1157 -12.1156 -11.9929 -11.9929
   -11.9905 -11.9904 -11.9077 -11.9077 -11.8764 -11.8764 -11.8533 -11.8533
   -11.7820 -11.7818 -11.7440 -11.7438 -11.6618 -11.6618 -11.6199 -11.6198
   -11.3828 -11.3827 -11.3649 -11.3647 -11.3252 -11.3252 -11.2875 -11.2874
   -11.2291 -11.2291 -11.1792 -11.1790 -11.1409 -11.1407 -11.1002 -11.1001
     0.0259   0.0259   0.0301   0.0302   0.1718   0.1719   0.2137   0.2137
     0.2160   0.2161   0.3531   0.3533   0.3640   0.3641   0.3752   0.3753
     0.4653   0.4653   0.4946   0.4948   0.6403   0.6405   0.7083   0.7084
     0.8293   0.8293   0.8996   0.8996   0.9412   0.9412   0.9606   0.9607
     0.9728   0.9728   1.2866   1.2868   1.4126   1.4128   1.5707   1.5707
     1.7751   1.7752   1.7997   1.7998   1.8562   1.8563   1.8690   1.8690
     1.8965   1.8965   2.0737   2.0738   2.0998   2.1000   2.1233   2.1234
     2.4369   2.4369   2.4463   2.4463   2.5028   2.5028   2.6783   2.6784
     2.7780   2.7783   2.7980   2.7983   2.8549   2.8550   2.8852   2.8854
     2.9073   2.9075   2.9210   2.9211   2.9836   2.9837   3.0054   3.0054
     3.0209   3.0210   3.0582   3.0583   3.2256   3.2257   3.2480   3.2481
     3.4154   3.4154   3.4574   3.4575   3.4906   3.4908   3.5681   3.5682
     3.7177   3.7177   3.7957   3.7957   3.8691   3.8692   3.8869   3.8869
     3.9120   3.9120   3.9431   3.9433   3.9746   3.9748   4.1613   4.1613
     4.4096   4.4096   4.6335   4.6335   4.7497   4.7497   4.8056   4.8056
     6.5315   6.5316   6.7547   6.7548   7.1007   7.1007   7.1355   7.1355
     7.6179   7.6179   7.7643   7.7644   7.8177   7.8179   7.8675   7.8675
     7.9112   7.9113   7.9412   7.9413   7.9826   7.9827   8.0952   8.0953
     8.2482   8.2482   8.2728   8.2729   8.2912   8.2912   8.3275   8.3276
     8.5750   8.5751   8.6112   8.6112   8.7263   8.7264   8.7899   8.7900
     8.8700   8.8701   8.9313   8.9314   9.0217

          k =-0.0000-0.4334 0.0000 ( 19880 PWs)   bands (ev):

   -59.4303 -59.4298 -59.4284 -59.4280 -59.4225 -59.4223 -59.4220 -59.4219
   -59.4208 -59.4206 -59.4203 -59.4202 -59.4186 -59.4182 -59.4168 -59.4164
   -33.3918 -33.3914 -33.3883 -33.3878 -33.3804 -33.3801 -33.3798 -33.3798
   -33.3797 -33.3794 -33.3780 -33.3778 -33.3775 -33.3774 -33.3763 -33.3758
   -33.2985 -33.2981 -33.2924 -33.2923 -33.2920 -33.2919 -33.2654 -33.2653
   -33.2650 -33.2649 -33.2533 -33.2529 -33.2243 -33.2239 -33.2010 -33.2009
   -33.2005 -33.2005 -33.1937 -33.1933 -33.1914 -33.1910 -33.1796 -33.1792
   -33.1792 -33.1791 -33.1788 -33.1787 -33.1572 -33.1568 -33.1549 -33.1545
   -12.9664 -12.9661 -12.8378 -12.8375 -12.0513 -12.0513 -12.0511 -12.0509
   -11.9771 -11.9768 -11.9036 -11.9033 -11.8728 -11.8727 -11.8725 -11.8724
   -11.8107 -11.8103 -11.7086 -11.7083 -11.6442 -11.6442 -11.6440 -11.6438
   -11.3527 -11.3526 -11.3491 -11.3490 -11.2587 -11.2586 -11.2585 -11.2582
   -11.2400 -11.2399 -11.2398 -11.2396 -11.1824 -11.1823 -11.1677 -11.1676
     0.0461   0.0462   0.0464   0.0464   0.1998   0.2000   0.2001   0.2002
     0.2745   0.2747   0.4058   0.4061   0.4214   0.4217   0.5119   0.5122
     0.5136   0.5139   0.5937   0.5938   0.5939   0.5943   0.8851   0.8851
     1.0058   1.0059   1.0584   1.0585   1.0586   1.0586   1.2262   1.2263
     1.2600   1.2603   1.3961   1.3962   1.3963   1.3964   1.4163   1.4163
     1.4164   1.4164   1.4223   1.4225   1.6253   1.6255   1.6255   1.6256
     1.9163   1.9164   2.0605   2.0605   2.0605   2.0606   2.0982   2.0984
     2.1585   2.1588   2.3781   2.3781   2.3782   2.3782   2.4185   2.4186
     2.4475   2.4476   2.4478   2.4478   2.5350   2.5350   2.7307   2.7309
     2.8516   2.8519   2.8655   2.8657   3.1446   3.1449   3.2505   3.2507
     3.3165   3.3167   3.3277   3.3278   3.3280   3.3281   3.4060   3.4061
     3.4781   3.4782   3.4783   3.4785   3.6334   3.6337   3.6437   3.6439
     3.6822   3.6823   3.7729   3.7731   3.8353   3.8354   4.0932   4.0933
     4.1718   4.1719   4.1721   4.1721   4.1784   4.1786   4.2605   4.2605
     4.2607   4.2607   4.3591   4.3591   4.3665   4.3665   4.3666   4.3666
     6.5918   6.5921   6.7004   6.7007   7.0222   7.0223   7.0225   7.0226
     7.7285   7.7286   7.7289   7.7289   7.8727   7.8728   7.9375   7.9376
     7.9433   7.9437   8.0764   8.0767   8.1361   8.1361   8.1364   8.1364
     8.1857   8.1859   8.1861   8.1862   8.2732   8.2734   8.4757   8.4761
     8.6195   8.6196   8.6199   8.6199   8.7423   8.7424   8.7427   8.7427
     8.7731   8.7735   8.9199   8.9202   8.9695

          k =-0.0000-0.4334-0.3068 ( 19960 PWs)   bands (ev):

   -59.4295 -59.4294 -59.4290 -59.4290 -59.4225 -59.4223 -59.4220 -59.4220
   -59.4208 -59.4206 -59.4203 -59.4203 -59.4177 -59.4177 -59.4173 -59.4173
   -33.3906 -33.3906 -33.3902 -33.3901 -33.3804 -33.3803 -33.3799 -33.3799
   -33.3787 -33.3786 -33.3782 -33.3781 -33.3780 -33.3780 -33.3776 -33.3775
   -33.2925 -33.2924 -33.2921 -33.2921 -33.2827 -33.2826 -33.2823 -33.2822
   -33.2671 -33.2670 -33.2667 -33.2666 -33.2003 -33.2002 -33.1999 -33.1999
   -33.1963 -33.1961 -33.1958 -33.1958 -33.1929 -33.1929 -33.1926 -33.1925
   -33.1807 -33.1806 -33.1803 -33.1802 -33.1558 -33.1558 -33.1554 -33.1554
   -12.9068 -12.9068 -12.9065 -12.9065 -12.0490 -12.0489 -12.0487 -12.0486
   -11.9289 -11.9289 -11.9287 -11.9286 -11.8776 -11.8775 -11.8773 -11.8772
   -11.7665 -11.7665 -11.7663 -11.7660 -11.6416 -11.6416 -11.6414 -11.6412
   -11.3531 -11.3531 -11.3530 -11.3530 -11.2589 -11.2588 -11.2587 -11.2584
   -11.2399 -11.2399 -11.2398 -11.2396 -11.1729 -11.1728 -11.1728 -11.1728
     0.0344   0.0345   0.0347   0.0347   0.2013   0.2015   0.2016   0.2017
     0.3197   0.3198   0.3200   0.3202   0.4135   0.4135   0.4138   0.4138
     0.5739   0.5740   0.5741   0.5744   0.7818   0.7819   0.7821   0.7821
     1.0851   1.0851   1.0852   1.0852   1.1846   1.1847   1.1848   1.1849
     1.2167   1.2168   1.2168   1.2169   1.3599   1.3600   1.3601   1.3601
     1.4927   1.4927   1.4927   1.4928   1.6775   1.6775   1.6775   1.6776
     2.0443   2.0444   2.0444   2.0444   2.1060   2.1061   2.1062   2.1062
     2.1263   2.1263   2.1266   2.1266   2.2252   2.2252   2.2252   2.2253
     2.5672   2.5673   2.5674   2.5674   2.7891   2.7893   2.7893   2.7898
     2.9934   2.9934   2.9935   2.9935   3.0601   3.0602   3.0603   3.0605
     3.0636   3.0637   3.0637   3.0638   3.2875   3.2875   3.2877   3.2877
     3.6378   3.6379   3.6381   3.6381   3.7302   3.7302   3.7303   3.7304
     3.7923   3.7924   3.7925   3.7927   3.9888   3.9888   3.9889   3.9889
     3.9920   3.9921   3.9922   3.9923   4.2783   4.2783   4.2784   4.2785
     4.3288   4.3288   4.3290   4.3291   4.3549   4.3549   4.3551   4.3552
     6.6437   6.6439   6.6441   6.6441   7.1073   7.1074   7.1076   7.1078
     7.6762   7.6764   7.6766   7.6767   7.9042   7.9045   7.9047   7.9047
     8.1199   8.1200   8.1202   8.1203   8.1260   8.1260   8.1263   8.1264
     8.1574   8.1574   8.1578   8.1578   8.1879   8.1880   8.1883   8.1883
     8.5832   8.5832   8.5835   8.5836   8.7770   8.7772   8.7774   8.7775
     8.9361   8.9362   8.9365   8.9366   9.1757

          k =-0.5000-0.0000 0.0000 ( 19952 PWs)   bands (ev):

   -59.4277 -59.4273 -59.4273 -59.4269 -59.4260 -59.4256 -59.4255 -59.4252
   -59.4196 -59.4192 -59.4191 -59.4187 -59.4178 -59.4174 -59.4173 -59.4170
   -33.3925 -33.3921 -33.3904 -33.3900 -33.3851 -33.3847 -33.3845 -33.3841
   -33.3819 -33.3815 -33.3809 -33.3805 -33.3716 -33.3713 -33.3703 -33.3699
   -33.2984 -33.2981 -33.2979 -33.2976 -33.2577 -33.2575 -33.2572 -33.2571
   -33.2561 -33.2560 -33.2554 -33.2551 -33.2339 -33.2338 -33.2333 -33.2332
   -33.1969 -33.1968 -33.1960 -33.1959 -33.1809 -33.1806 -33.1799 -33.1796
   -33.1734 -33.1732 -33.1728 -33.1726 -33.1715 -33.1714 -33.1706 -33.1704
   -12.7156 -12.7155 -12.5598 -12.5597 -12.5456 -12.5455 -12.4214 -12.4213
   -11.9389 -11.9389 -11.8077 -11.8076 -11.7835 -11.7834 -11.7823 -11.7823
   -11.7471 -11.7470 -11.7406 -11.7405 -11.6952 -11.6951 -11.6567 -11.6566
   -11.3617 -11.3617 -11.3299 -11.3299 -11.3288 -11.3288 -11.2848 -11.2848
   -11.2462 -11.2461 -11.2323 -11.2322 -11.1280 -11.1279 -11.0871 -11.0871
    -0.1412  -0.1412  -0.1269  -0.1269  -0.1037  -0.1037  -0.0904  -0.0904
     0.3627   0.3628   0.3724   0.3725   0.4032   0.4033   0.4502   0.4504
     0.5044   0.5045   0.6489   0.6490   0.6975   0.6977   0.7469   0.7470
     0.8063   0.8064   0.9670   0.9671   0.9873   0.9874   1.0319   1.0319
     1.1993   1.1994   1.4288   1.4288   1.4334   1.4335   1.4620   1.4621
     1.5198   1.5198   1.7923   1.7923   1.9320   1.9321   1.9846   1.9846
     1.9914   1.9914   1.9974   1.9975   2.0554   2.0554   2.0581   2.0581
     2.4702   2.4703   2.6230   2.6230   2.6322   2.6322   2.6325   2.6325
     2.6591   2.6591   2.6711   2.6712   2.6971   2.6971   2.7321   2.7321
     2.7573   2.7573   3.0008   3.0009   3.0389   3.0390   3.0408   3.0408
     3.1451   3.1452   3.1452   3.1453   3.2332   3.2332   3.3000   3.3000
     3.5055   3.5056   3.5262   3.5262   3.6040   3.6040   3.6513   3.6513
     3.7086   3.7086   3.7573   3.7573   3.8154   3.8155   3.8306   3.8307
     4.0922   4.0922   4.2129   4.2129   4.3759   4.3759   4.3804   4.3805
     4.4045   4.4045   4.4206   4.4207   4.6545   4.6545   4.7254   4.7254
     6.7827   6.7829   6.8472   6.8474   6.9966   6.9968   6.9998   7.0000
     7.6658   7.6659   7.7377   7.7378   7.7570   7.7570   7.8520   7.8520
     7.9014   7.9016   7.9047   7.9048   7.9712   7.9713   8.1260   8.1262
     8.1350   8.1352   8.1764   8.1766   8.2101   8.2102   8.2505   8.2506
     8.3064   8.3065   8.3656   8.3658   8.3801   8.3803   8.4477   8.4477
     8.4681   8.4683   8.4851   8.4851   8.5118

          k =-0.5000-0.0000-0.3068 ( 19896 PWs)   bands (ev):

   -59.4270 -59.4269 -59.4265 -59.4265 -59.4265 -59.4264 -59.4262 -59.4261
   -59.4186 -59.4185 -59.4182 -59.4181 -59.4181 -59.4181 -59.4178 -59.4177
   -33.3912 -33.3911 -33.3908 -33.3908 -33.3827 -33.3826 -33.3825 -33.3825
   -33.3823 -33.3822 -33.3821 -33.3821 -33.3708 -33.3708 -33.3705 -33.3704
   -33.2845 -33.2842 -33.2841 -33.2839 -33.2837 -33.2835 -33.2834 -33.2832
   -33.2389 -33.2388 -33.2386 -33.2386 -33.2381 -33.2381 -33.2379 -33.2379
   -33.1862 -33.1860 -33.1858 -33.1858 -33.1856 -33.1855 -33.1854 -33.1853
   -33.1742 -33.1740 -33.1739 -33.1738 -33.1737 -33.1736 -33.1735 -33.1734
   -12.6470 -12.6470 -12.6469 -12.6469 -12.4892 -12.4891 -12.4891 -12.4890
   -11.8242 -11.8242 -11.8241 -11.8240 -11.7707 -11.7707 -11.7707 -11.7706
   -11.7589 -11.7588 -11.7588 -11.7588 -11.7115 -11.7115 -11.7114 -11.7113
   -11.3604 -11.3603 -11.3603 -11.3602 -11.2679 -11.2679 -11.2678 -11.2678
   -11.2618 -11.2617 -11.2617 -11.2617 -11.1050 -11.1050 -11.1050 -11.1049
    -0.1392  -0.1392  -0.1392  -0.1391  -0.1077  -0.1077  -0.1077  -0.1076
     0.3537   0.3537   0.3537   0.3538   0.4916   0.4917   0.4917   0.4919
     0.5011   0.5011   0.5012   0.5014   0.7392   0.7393   0.7393   0.7394
     0.9527   0.9528   0.9528   0.9528   1.0792   1.0793   1.0793   1.0794
     1.2205   1.2205   1.2205   1.2206   1.4640   1.4640   1.4640   1.4640
     1.4695   1.4696   1.4696   1.4696   1.9301   1.9301   1.9301   1.9302
     2.0605   2.0605   2.0605   2.0607   2.4173   2.4173   2.4174   2.4174
     2.4210   2.4210   2.4210   2.4210   2.5989   2.5989   2.5990   2.5990
     2.6657   2.6657   2.6658   2.6659   2.7135   2.7135   2.7135   2.7136
     2.7536   2.7536   2.7537   2.7537   3.1487   3.1488   3.1488   3.1488
     3.1756   3.1757   3.1757   3.1757   3.2273   3.2274   3.2275   3.2275
     3.3265   3.3265   3.3266   3.3266   3.7436   3.7436   3.7436   3.7436
     3.7803   3.7803   3.7804   3.7804   3.8197   3.8197   3.8197   3.8198
     4.0969   4.0970   4.0970   4.0970   4.2985   4.2985   4.2985   4.2986
     4.5175   4.5176   4.5176   4.5176   4.6855   4.6855   4.6855   4.6856
     6.9307   6.9309   6.9310   6.9312   6.9413   6.9416   6.9416   6.9418
     7.7341   7.7342   7.7343   7.7343   7.7823   7.7823   7.7823   7.7824
     7.8805   7.8808   7.8808   7.8808   7.9842   7.9843   7.9843   7.9843
     8.2229   8.2230   8.2230   8.2231   8.2642   8.2644   8.2645   8.2645
     8.3301   8.3301   8.3301   8.3302   8.3507   8.3509   8.3509   8.3509
     8.4490   8.4491   8.4493   8.4493   8.5423

          k =-0.5000-0.4334 0.0000 ( 19892 PWs)   bands (ev):

   -59.4277 -59.4273 -59.4273 -59.4269 -59.4259 -59.4255 -59.4255 -59.4251
   -59.4195 -59.4191 -59.4190 -59.4187 -59.4178 -59.4174 -59.4173 -59.4170
   -33.3880 -33.3876 -33.3875 -33.3871 -33.3856 -33.3852 -33.3851 -33.3848
   -33.3789 -33.3785 -33.3784 -33.3781 -33.3756 -33.3752 -33.3751 -33.3748
   -33.2980 -33.2977 -33.2976 -33.2973 -33.2561 -33.2560 -33.2559 -33.2557
   -33.2557 -33.2556 -33.2555 -33.2553 -33.2336 -33.2334 -33.2332 -33.2331
   -33.1964 -33.1963 -33.1960 -33.1959 -33.1806 -33.1803 -33.1802 -33.1799
   -33.1734 -33.1731 -33.1730 -33.1728 -33.1712 -33.1711 -33.1709 -33.1707
   -12.6301 -12.6300 -12.6298 -12.6298 -12.4892 -12.4891 -12.4889 -12.4888
   -11.8613 -11.8611 -11.8609 -11.8608 -11.7703 -11.7702 -11.7700 -11.7699
   -11.7630 -11.7629 -11.7627 -11.7626 -11.6769 -11.6768 -11.6765 -11.6765
   -11.3091 -11.3091 -11.3090 -11.3090 -11.3086 -11.3086 -11.3085 -11.3085
   -11.2130 -11.2129 -11.2129 -11.2128 -11.1860 -11.1860 -11.1859 -11.1859
    -0.1244  -0.1243  -0.1241  -0.1240  -0.1105  -0.1105  -0.1102  -0.1102
     0.4151   0.4153   0.4154   0.4155   0.6102   0.6103   0.6105   0.6106
     0.6327   0.6329   0.6331   0.6332   0.9335   0.9336   0.9336   0.9336
     1.0541   1.0542   1.0542   1.0542   1.1773   1.1773   1.1775   1.1775
     1.2476   1.2476   1.2479   1.2479   1.3656   1.3657   1.3657   1.3658
     1.4463   1.4464   1.4464   1.4465   1.5445   1.5446   1.5447   1.5447
     1.9889   1.9890   1.9890   1.9891   2.1169   2.1169   2.1171   2.1171
     2.3359   2.3359   2.3359   2.3360   2.3403   2.3404   2.3404   2.3404
     2.6859   2.6860   2.6861   2.6861   2.7044   2.7044   2.7045   2.7045
     2.7624   2.7624   2.7624   2.7624   3.0813   3.0814   3.0816   3.0816
     3.0826   3.0826   3.0827   3.0827   3.4188   3.4188   3.4188   3.4189
     3.5985   3.5986   3.5987   3.5987   3.6904   3.6905   3.6907   3.6907
     3.9859   3.9859   3.9861   3.9861   4.1255   4.1255   4.1255   4.1256
     4.1344   4.1344   4.1346   4.1346   4.2518   4.2518   4.2520   4.2520
     4.3005   4.3005   4.3007   4.3007   4.3672   4.3672   4.3673   4.3673
     6.8213   6.8215   6.8216   6.8218   6.9962   6.9965   6.9966   6.9968
     7.8069   7.8070   7.8072   7.8073   7.8434   7.8436   7.8437   7.8438
     7.8931   7.8933   7.8935   7.8936   8.1619   8.1619   8.1621   8.1621
     8.1636   8.1638   8.1639   8.1641   8.1784   8.1784   8.1786   8.1786
     8.3690   8.3691   8.3692   8.3693   8.4052   8.4053   8.4055   8.4056
     8.4527   8.4528   8.4530   8.4530   8.5095

          k =-0.5000-0.4334-0.3068 ( 19872 PWs)   bands (ev):

   -59.4270 -59.4269 -59.4265 -59.4265 -59.4265 -59.4264 -59.4262 -59.4261
   -59.4186 -59.4185 -59.4182 -59.4181 -59.4181 -59.4181 -59.4178 -59.4177
   -33.3868 -33.3868 -33.3864 -33.3864 -33.3863 -33.3863 -33.3860 -33.3859
   -33.3770 -33.3770 -33.3766 -33.3766 -33.3765 -33.3765 -33.3762 -33.3761
   -33.2845 -33.2841 -33.2840 -33.2839 -33.2839 -33.2838 -33.2837 -33.2834
   -33.2383 -33.2382 -33.2380 -33.2380 -33.2379 -33.2378 -33.2377 -33.2376
   -33.1860 -33.1857 -33.1856 -33.1856 -33.1855 -33.1854 -33.1853 -33.1852
   -33.1741 -33.1739 -33.1738 -33.1737 -33.1737 -33.1736 -33.1734 -33.1733
   -12.5671 -12.5671 -12.5670 -12.5670 -12.5668 -12.5668 -12.5668 -12.5667
   -11.7669 -11.7668 -11.7668 -11.7667 -11.7666 -11.7665 -11.7665 -11.7665
   -11.7625 -11.7624 -11.7623 -11.7623 -11.7622 -11.7622 -11.7619 -11.7618
   -11.3112 -11.3112 -11.3111 -11.3111 -11.3111 -11.3111 -11.3110 -11.3110
   -11.1962 -11.1961 -11.1961 -11.1961 -11.1961 -11.1960 -11.1960 -11.1960
    -0.1254  -0.1253  -0.1253  -0.1253  -0.1250  -0.1250  -0.1250  -0.1250
     0.4708   0.4709   0.4709   0.4711   0.4711   0.4711   0.4713   0.4715
     0.8676   0.8677   0.8677   0.8677   0.8678   0.8679   0.8679   0.8679
     1.0721   1.0721   1.0721   1.0722   1.0722   1.0722   1.0723   1.0723
     1.3496   1.3496   1.3496   1.3497   1.3497   1.3497   1.3498   1.3498
     1.4307   1.4308   1.4308   1.4309   1.4309   1.4309   1.4310   1.4311
     2.0187   2.0188   2.0188   2.0189   2.0189   2.0189   2.0189   2.0189
     2.5479   2.5479   2.5480   2.5480   2.5480   2.5480   2.5481   2.5482
     2.6543   2.6543   2.6543   2.6544   2.6544   2.6544   2.6544   2.6544
     2.7823   2.7824   2.7825   2.7825   2.7825   2.7825   2.7826   2.7826
     3.2281   3.2282   3.2282   3.2283   3.2283   3.2284   3.2284   3.2284
     3.6936   3.6936   3.6936   3.6937   3.6938   3.6938   3.6939   3.6939
     4.0234   4.0234   4.0235   4.0236   4.0236   4.0237   4.0237   4.0238
     4.2234   4.2234   4.2235   4.2235   4.2235   4.2235   4.2235   4.2236
     4.3377   4.3378   4.3378   4.3378   4.3378   4.3378   4.3378   4.3378
     6.9334   6.9338   6.9338   6.9339   6.9339   6.9340   6.9340   6.9343
     7.8213   7.8216   7.8216   7.8217   7.8218   7.8219   7.8219   7.8220
     8.0110   8.0111   8.0111   8.0112   8.0113   8.0113   8.0114   8.0115
     8.1896   8.1897   8.1898   8.1898   8.1900   8.1900   8.1901   8.1901
     8.3667   8.3671   8.3671   8.3671   8.3671   8.3673   8.3674   8.3674
     8.4618   8.4619   8.4619   8.4620   8.4620

     the Fermi energy is     5.8016 ev

!    total energy              =   -5145.77058728 Ry
     Harris-Foulkes estimate   =   -5145.77058759 Ry
     estimated scf accuracy    <       0.00000043 Ry

     total all-electron energy =    -36454.330327 Ry

     The total energy is the sum of the following terms:

     one-electron contribution =   -2172.52823075 Ry
     hartree contribution      =    1274.09746799 Ry
     xc contribution           =    -635.35390639 Ry
     ewald contribution        =   -2072.98723924 Ry
     one-center paw contrib.   =   -1538.24132763 Ry
     smearing contrib. (-TS)   =      -0.75735126 Ry

     convergence has been achieved in  24 iterations

     negative rho (up, down):  2.439E-03 0.000E+00

     Forces acting on atoms (cartesian axes, Ry/au):

     atom    1 type  1   force =     0.00004458   -0.00118727   -0.00258905
     atom    2 type  1   force =    -0.00002548    0.00125856    0.00260887
     atom    3 type  1   force =    -0.00002548    0.00125856   -0.00260887
     atom    4 type  1   force =     0.00004458   -0.00118727    0.00258905
     atom    5 type  2   force =     0.00000298    0.00127923    0.00000000
     atom    6 type  2   force =     0.00000241   -0.00183973    0.00052143
     atom    7 type  2   force =    -0.00000479    0.00135089    0.00112154
     atom    8 type  2   force =    -0.00001366   -0.00136699   -0.00111859
     atom    9 type  2   force =    -0.00000041    0.00182399   -0.00051889
     atom   10 type  2   force =    -0.00000114   -0.00127160    0.00000000
     atom   11 type  2   force =    -0.00000041    0.00182399    0.00051889
     atom   12 type  2   force =    -0.00001366   -0.00136699    0.00111859
     atom   13 type  2   force =    -0.00000479    0.00135089   -0.00112154
     atom   14 type  2   force =     0.00000241   -0.00183973   -0.00052143
     atom   15 type  1   force =     0.00006240   -0.00124226   -0.00257331
     atom   16 type  1   force =    -0.00002687    0.00119523    0.00268644
     atom   17 type  1   force =    -0.00002687    0.00119523   -0.00268644
     atom   18 type  1   force =     0.00006240   -0.00124226    0.00257331
     atom   19 type  2   force =     0.00000187    0.00126237    0.00000000
     atom   20 type  2   force =    -0.00000018   -0.00179929    0.00050760
     atom   21 type  2   force =    -0.00000649    0.00135940    0.00112830
     atom   22 type  2   force =    -0.00000822   -0.00136197   -0.00113909
     atom   23 type  2   force =    -0.00000043    0.00179415   -0.00051139
     atom   24 type  2   force =    -0.00000409   -0.00127601    0.00000000
     atom   25 type  2   force =    -0.00000043    0.00179415    0.00051139
     atom   26 type  2   force =    -0.00000822   -0.00136197    0.00113909
     atom   27 type  2   force =    -0.00000649    0.00135940   -0.00112830
     atom   28 type  2   force =    -0.00000018   -0.00179929   -0.00050760
     atom   29 type  1   force =     0.00002584   -0.00120047   -0.00258092
     atom   30 type  1   force =    -0.00001896    0.00118349    0.00263921
     atom   31 type  1   force =    -0.00001896    0.00118349   -0.00263921
     atom   32 type  1   force =     0.00002584   -0.00120047    0.00258092
     atom   33 type  2   force =     0.00000619    0.00128756    0.00000000
     atom   34 type  2   force =     0.00000459   -0.00182647    0.00052400
     atom   35 type  2   force =    -0.00000946    0.00135853    0.00112254
     atom   36 type  2   force =    -0.00000035   -0.00136539   -0.00112311
     atom   37 type  2   force =    -0.00000267    0.00178931   -0.00051883
     atom   38 type  2   force =    -0.00000503   -0.00123736    0.00000000
     atom   39 type  2   force =    -0.00000267    0.00178931    0.00051883
     atom   40 type  2   force =    -0.00000035   -0.00136539    0.00112311
     atom   41 type  2   force =    -0.00000946    0.00135853   -0.00112254
     atom   42 type  2   force =     0.00000459   -0.00182647   -0.00052400
     atom   43 type  1   force =     0.00000564   -0.00123338   -0.00256919
     atom   44 type  1   force =    -0.00001941    0.00121478    0.00268660
     atom   45 type  1   force =    -0.00001941    0.00121478   -0.00268660
     atom   46 type  1   force =     0.00000564   -0.00123338    0.00256919
     atom   47 type  2   force =     0.00000628    0.00126032    0.00000000
     atom   48 type  2   force =     0.00000794   -0.00178581    0.00050849
     atom   49 type  2   force =    -0.00000813    0.00135493    0.00112910
     atom   50 type  2   force =    -0.00000710   -0.00136165   -0.00114159
     atom   51 type  2   force =    -0.00000245    0.00185817   -0.00050939
     atom   52 type  2   force =    -0.00000376   -0.00124603    0.00000000
     atom   53 type  2   force =    -0.00000245    0.00185817    0.00050939
     atom   54 type  2   force =    -0.00000710   -0.00136165    0.00114159
     atom   55 type  2   force =    -0.00000813    0.00135493   -0.00112910
     atom   56 type  2   force =     0.00000794   -0.00178581   -0.00050849

     Total force =     0.015903     Total SCF correction =     0.001823
     SCF correction compared to forces is large: reduce conv_thr to get better values

     BFGS Geometry Optimization

     bfgs converged in   1 scf cycles and   0 bfgs steps
     (criteria: energy <  1.0E-04 Ry, force <  1.0E-02 Ry/Bohr)

     End of BFGS Geometry Optimization

     Final energy   =   -5145.7705872811 Ry
Begin final coordinates

ATOMIC_POSITIONS (angstrom)
V        1.108943983   1.582950957   1.735218637
V        2.899280770   2.486429040   4.099656563
V        2.899280770   2.486429040   7.570159619
V        1.108943983   1.582950957   9.934598066
O        1.108971644   2.005201992   0.000000000
O        1.108952199  -0.037475288   1.702198008
O        2.899303159   2.027793352   2.097385599
O        1.108966749   2.041595808   3.737521047
O        2.899292284   4.106850414   4.132698936
O        2.899311841   2.064151649   5.834908265
O        2.899292284   4.106850414   7.537117593
O        1.108966749   2.041595808   7.932295830
O        2.899303159   2.027793352   9.572431278
O        1.108952199  -0.037475288   9.967619218
V        1.108943017   5.713716486   1.735218637
V        2.899279804   6.617194569   4.099656563
V        2.899279804   6.617194569   7.570159619
V        1.108943017   5.713716486   9.934598066
O        1.108970678   6.135967521   0.000000000
O        1.108951233   4.093290241   1.702198008
O        2.899302193   6.158558881   2.097385599
O        1.108965783   6.172361337   3.737521047
O        2.899291318   8.237615943   4.132698936
O        2.899310875   6.194917178   5.834908265
O        2.899291318   8.237615943   7.537117593
O        1.108965783   6.172361337   7.932295830
O        2.899302193   6.158558881   9.572431278
O        1.108951233   4.093290241   9.967619218
V        4.689617576   1.582950211   1.735218637
V        6.479954363   2.486428294   4.099656563
V        6.479954363   2.486428294   7.570159619
V        4.689617576   1.582950211   9.934598066
O        4.689645237   2.005201246   0.000000000
O        4.689625792  -0.037476034   1.702198008
O        6.479976752   2.027792606   2.097385599
O        4.689640342   2.041595062   3.737521047
O        6.479965877   4.106849668   4.132698936
O        6.479985434   2.064150903   5.834908265
O        6.479965877   4.106849668   7.537117593
O        4.689640342   2.041595062   7.932295830
O        6.479976752   2.027792606   9.572431278
O        4.689625792  -0.037476034   9.967619218
V        4.689616610   5.713715740   1.735218637
V        6.479953397   6.617193823   4.099656563
V        6.479953397   6.617193823   7.570159619
V        4.689616610   5.713715740   9.934598066
O        4.689644271   6.135966775   0.000000000
O        4.689624826   4.093289495   1.702198008
O        6.479975786   6.158558135   2.097385599
O        4.689639376   6.172360591   3.737521047
O        6.479964911   8.237615197   4.132698936
O        6.479984468   6.194916432   5.834908265
O        6.479964911   8.237615197   7.537117593
O        4.689639376   6.172360591   7.932295830
O        6.479975786   6.158558135   9.572431278
O        4.689624826   4.093289495   9.967619218
End final coordinates



     Writing output data file v16o40.save/

     init_run     :     92.71s CPU     94.53s WALL (       1 calls)
     electrons    :   6649.50s CPU   6733.67s WALL (       1 calls)
     forces       :     31.04s CPU     31.24s WALL (       1 calls)

     Called by init_run:
     wfcinit      :     85.93s CPU     87.33s WALL (       1 calls)
     potinit      :      2.44s CPU      2.55s WALL (       1 calls)
     hinit0       :      1.53s CPU      1.55s WALL (       1 calls)

     Called by electrons:
     c_bands      :   6093.45s CPU   6162.51s WALL (      24 calls)
     sum_band     :    462.27s CPU    473.89s WALL (      24 calls)
     v_of_rho     :     27.12s CPU     28.48s WALL (      25 calls)
     newd         :     45.35s CPU     47.74s WALL (      25 calls)
     PAW_pot      :     24.22s CPU     24.26s WALL (      25 calls)
     mix_rho      :      0.73s CPU      0.78s WALL (      24 calls)

     Called by c_bands:
     init_us_2    :      4.54s CPU      4.58s WALL (     400 calls)
     cegterg      :   6043.22s CPU   6112.19s WALL (     192 calls)

     Called by sum_band:
     sum_band:bec :      1.54s CPU      1.54s WALL (     192 calls)
     addusdens    :     37.69s CPU     40.18s WALL (      24 calls)

     Called by *egterg:
     h_psi        :   1873.17s CPU   1915.32s WALL (     890 calls)
     s_psi        :    677.56s CPU    679.25s WALL (     890 calls)
     g_psi        :      0.87s CPU      0.88s WALL (     690 calls)
     cdiaghg      :   1674.14s CPU   1693.80s WALL (     882 calls)

     Called by h_psi:
     h_psi:pot    :   1871.19s CPU   1913.28s WALL (     890 calls)
     h_psi:calbec :    824.28s CPU    827.84s WALL (     890 calls)
     vloc_psi     :    331.46s CPU    368.22s WALL (     890 calls)
     add_vuspsi   :    715.42s CPU    717.20s WALL (     890 calls)

     General routines
     calbec       :   1195.05s CPU   1200.13s WALL (    1114 calls)
     fft          :     17.25s CPU     18.63s WALL (    1634 calls)
     ffts         :      0.21s CPU      0.23s WALL (      49 calls)
     fftw         :    372.13s CPU    413.70s WALL (  299072 calls)
     interpolate  :      0.23s CPU      0.26s WALL (      25 calls)

     Parallel routines
     fft_scatt_xy :     23.28s CPU     26.25s WALL (  300755 calls)
     fft_scatt_yz :    300.85s CPU    334.10s WALL (  300755 calls)

     PWSCF        :      1h52m CPU      1h54m WALL


   This run was terminated on:  21: 3:48  10Mar2024            

=------------------------------------------------------------------------------=
   JOB DONE.
=------------------------------------------------------------------------------=
