
     Program DYNMAT v.6.7MaX starts on 13Oct2024 at 20:18:45 

     This program is part of the open-source Quantum ESPRESSO suite
     for quantum simulation of materials; please cite
         "P. Giannozzi et al., J. Phys.:Condens. Matter 21 395502 (2009);
         "P. Giannozzi et al., J. Phys.:Condens. Matter 29 465901 (2017);
          URL http://www.quantum-espresso.org", 
     in publications or presentations arising from this work. More details at
     http://www.quantum-espresso.org/quote

     Parallel version (MPI), running on    32 processors

     MPI processes distributed on     1 nodes
     R & G space division:  proc/nbgrp/npool/nimage =      32

     Reading Dynamical Matrix from file v2o5.dyn
     ...Force constants read
     ...epsilon and Z* read
     ...Raman cross sections read
     Acoustic Sum Rule: || Z*(ASR) - Z*(orig)|| =    7.341512E-02
     Acoustic Sum Rule: ||dyn(ASR) - dyn(orig)||=    3.126272E-03
     A direction for q was not specified:TO-LO splitting will be absent

     Polarizability (A^3 units)
     multiply by 0.421536 for Clausius-Mossotti correction
        72.487981    0.000000    0.000000
         0.000000   35.897365    0.000000
         0.000000    0.000000   84.071232

     IR activities are in (D/A)^2/amu units
     Raman activities are in A^4/amu units
     multiply Raman by 0.177693 for Clausius-Mossotti correction

# mode   [cm-1]    [THz]      IR          Raman   depol.fact
    1     -0.00   -0.0000    0.0000         0.0000    0.6570
    2      0.00    0.0000    0.0000         0.0000    0.7500
    3      0.00    0.0000    0.0000         0.0000    0.5064
    4     62.32    1.8684    0.4966         0.0000    0.5927
    5     66.27    1.9867    0.0000         0.0000    0.7475
    6     92.47    2.7722    0.0000        15.8919    0.7489
    7    126.71    3.7986    0.0957         0.0000    0.6745
    8    129.37    3.8784    0.0000         0.0057    0.7500
    9    133.20    3.9933    0.0000       644.8639    0.7500
   10    138.75    4.1596    0.0000        34.1455    0.7500
   11    185.32    5.5558    0.0000        42.4697    0.7193
   12    187.04    5.6073    0.0000        11.1686    0.7500
   13    205.82    6.1703   16.0270         0.0000    0.7500
   14    232.51    6.9704    0.0000        17.2950    0.7500
   15    245.04    7.3462   13.0486         0.0000    0.6896
   16    264.16    7.9194    0.0000         0.0000    0.6448
   17    279.14    8.3684    0.0000       352.6392    0.7500
   18    279.87    8.3902    0.0406         0.0000    0.7356
   19    279.98    8.3936   26.5955         0.0000    0.7471
   20    285.53    8.5599    0.0000       290.3071    0.7500
   21    293.78    8.8072    0.0000       135.8052    0.2908
   22    298.90    8.9607    0.0000        49.2480    0.7500
   23    326.51    9.7886  124.3401         0.0000    0.4293
   24    338.38   10.1445    0.0000        48.6410    0.7500
   25    355.13   10.6464    0.1987         0.0000    0.6095
   26    396.03   11.8728   40.6810         0.0000    0.0503
   27    396.97   11.9008    0.0000       119.4295    0.0546
   28    448.54   13.4469    0.0000         0.0000    0.7322
   29    452.47   13.5647    0.0000       506.0359    0.7300
   30    456.14   13.6748  190.8740         0.0000    0.7417
   31    465.74   13.9624    5.2911         0.0000    0.5606
   32    471.21   14.1265    0.0000       106.3252    0.7500
   33    515.50   15.4543    0.0000       317.6313    0.1374
   34    593.01   17.7781    0.4397         0.0000    0.7484
   35    658.18   19.7318    0.0000      2803.9651    0.7500
   36    658.32   19.7360    0.0000       564.9644    0.7500
   37    737.21   22.1010   91.7368         0.0000    0.1412
   38    898.65   26.9408    0.0000         1.8072    0.7500
   39    996.13   29.8632    0.3470         0.0000    0.0036
   40   1001.50   30.0243   32.4011         0.0000    0.0096
   41   1014.43   30.4119    0.0000        14.6913    0.7500
   42   1018.76   30.5418    0.0000      3546.7924    0.0009

     DYNMAT       :      0.07s CPU      0.08s WALL


   This run was terminated on:  20:18:45  13Oct2024            

=------------------------------------------------------------------------------=
   JOB DONE.
=------------------------------------------------------------------------------=
