ANIMSTEPS   42
CRYSTAL
PRIMVEC
    3.580168370    0.000000000    0.000000000
    0.000000000    4.689250829    0.000000000
    0.000000000    0.000000000   11.664131268
PRIMCOORD    1
     14   1
   V      0.00000   1.82607   7.55364   0.01192   0.02392  -0.00042
   V      1.79008   2.86318   9.94255   0.01192   0.02392  -0.00042
   V      1.79008   2.86318   1.72158   0.01192   0.02392  -0.00042
   V      0.00000   1.82607   4.11049   0.01192   0.02392  -0.00042
   O      1.79008   2.31916   7.94564   0.01192   0.02392  -0.00042
   O      0.00000   2.37009   9.55056   0.01192   0.02392  -0.00042
   O      0.00000   2.37009   2.11358   0.01192   0.02392  -0.00042
   O      1.79008   2.31916   3.71849   0.01192   0.02392  -0.00042
   O      0.00000   0.23490   4.16583   0.01192   0.02392  -0.00042
   O      1.79008   4.45435   1.66623   0.01192   0.02392  -0.00042
   O      1.79008   4.45435   9.99790   0.01192   0.02392  -0.00042
   O      1.79008   2.34079   0.00000   0.01192   0.02392  -0.00042
   O      0.00000   2.34846   5.83207   0.01192   0.02392  -0.00042
   O      0.00000   0.23490   7.49830   0.01192   0.02392  -0.00042
PRIMCOORD    2
     14   1
   V      0.00000   1.82607   7.55364  -0.02139   0.01087   0.01178
   V      1.79008   2.86318   9.94255  -0.02139   0.01087   0.01178
   V      1.79008   2.86318   1.72158  -0.02139   0.01087   0.01178
   V      0.00000   1.82607   4.11049  -0.02139   0.01087   0.01178
   O      1.79008   2.31916   7.94564  -0.02139   0.01087   0.01178
   O      0.00000   2.37009   9.55056  -0.02139   0.01087   0.01178
   O      0.00000   2.37009   2.11358  -0.02139   0.01087   0.01178
   O      1.79008   2.31916   3.71849  -0.02139   0.01087   0.01178
   O      0.00000   0.23490   4.16583  -0.02139   0.01087   0.01178
   O      1.79008   4.45435   1.66623  -0.02139   0.01087   0.01178
   O      1.79008   4.45435   9.99790  -0.02139   0.01087   0.01178
   O      1.79008   2.34079   0.00000  -0.02139   0.01087   0.01178
   O      0.00000   2.34846   5.83207  -0.02139   0.01087   0.01178
   O      0.00000   0.23490   7.49830  -0.02139   0.01087   0.01178
PRIMCOORD    3
     14   1
   V      0.00000   1.82607   7.55364   0.01071  -0.00491   0.02399
   V      1.79008   2.86318   9.94255   0.01071  -0.00491   0.02399
   V      1.79008   2.86318   1.72158   0.01071  -0.00491   0.02399
   V      0.00000   1.82607   4.11049   0.01071  -0.00491   0.02399
   O      1.79008   2.31916   7.94564   0.01071  -0.00491   0.02399
   O      0.00000   2.37009   9.55056   0.01071  -0.00491   0.02399
   O      0.00000   2.37009   2.11358   0.01071  -0.00491   0.02399
   O      1.79008   2.31916   3.71849   0.01071  -0.00491   0.02399
   O      0.00000   0.23490   4.16583   0.01071  -0.00491   0.02399
   O      1.79008   4.45435   1.66623   0.01071  -0.00491   0.02399
   O      1.79008   4.45435   9.99790   0.01071  -0.00491   0.02399
   O      1.79008   2.34079   0.00000   0.01071  -0.00491   0.02399
   O      0.00000   2.34846   5.83207   0.01071  -0.00491   0.02399
   O      0.00000   0.23490   7.49830   0.01071  -0.00491   0.02399
PRIMCOORD    4
     14   1
   V      0.00000   1.82607   7.55364  -0.00000   0.02495  -0.00235
   V      1.79008   2.86318   9.94255  -0.00000   0.02495  -0.00235
   V      1.79008   2.86318   1.72158   0.00000  -0.02495  -0.00235
   V      0.00000   1.82607   4.11049   0.00000  -0.02495  -0.00235
   O      1.79008   2.31916   7.94564  -0.00000   0.03176  -0.00391
   O      0.00000   2.37009   9.55056  -0.00000   0.03176  -0.00391
   O      0.00000   2.37009   2.11358   0.00000  -0.03176  -0.00391
   O      1.79008   2.31916   3.71849   0.00000  -0.03176  -0.00391
   O      0.00000   0.23490   4.16583   0.00000  -0.02415   0.01531
   O      1.79008   4.45435   1.66623   0.00000  -0.02415   0.01531
   O      1.79008   4.45435   9.99790  -0.00000   0.02415   0.01531
   O      1.79008   2.34079   0.00000   0.00000  -0.00000  -0.00783
   O      0.00000   2.34846   5.83207  -0.00000  -0.00000  -0.00783
   O      0.00000   0.23490   7.49830  -0.00000   0.02415   0.01531
PRIMCOORD    5
     14   1
   V      0.00000   1.82607   7.55364  -0.02892  -0.00000   0.00000
   V      1.79008   2.86318   9.94255  -0.02892   0.00000   0.00000
   V      1.79008   2.86318   1.72158   0.02892   0.00000   0.00000
   V      0.00000   1.82607   4.11049   0.02892   0.00000   0.00000
   O      1.79008   2.31916   7.94564  -0.02380  -0.00000   0.00000
   O      0.00000   2.37009   9.55056  -0.02380   0.00000   0.00000
   O      0.00000   2.37009   2.11358   0.02380   0.00000   0.00000
   O      1.79008   2.31916   3.71849   0.02380   0.00000   0.00000
   O      0.00000   0.23490   4.16583   0.03313   0.00000   0.00000
   O      1.79008   4.45435   1.66623   0.03313   0.00000   0.00000
   O      1.79008   4.45435   9.99790  -0.03313   0.00000  -0.00000
   O      1.79008   2.34079   0.00000   0.00000   0.00000  -0.00000
   O      0.00000   2.34846   5.83207   0.00000   0.00000   0.00000
   O      0.00000   0.23490   7.49830  -0.03313  -0.00000  -0.00000
PRIMCOORD    6
     14   1
   V      0.00000   1.82607   7.55364   0.00000  -0.02245   0.00527
   V      1.79008   2.86318   9.94255  -0.00000   0.02245  -0.00527
   V      1.79008   2.86318   1.72158   0.00000   0.02245   0.00527
   V      0.00000   1.82607   4.11049  -0.00000  -0.02245  -0.00527
   O      1.79008   2.31916   7.94564  -0.00000  -0.01954   0.00232
   O      0.00000   2.37009   9.55056  -0.00000   0.01954  -0.00232
   O      0.00000   2.37009   2.11358   0.00000   0.01954   0.00232
   O      1.79008   2.31916   3.71849  -0.00000  -0.01954  -0.00232
   O      0.00000   0.23490   4.16583  -0.00000  -0.02309  -0.01776
   O      1.79008   4.45435   1.66623   0.00000   0.02309   0.01776
   O      1.79008   4.45435   9.99790  -0.00000   0.02309  -0.01776
   O      1.79008   2.34079   0.00000   0.00000   0.03827   0.00000
   O      0.00000   2.34846   5.83207  -0.00000  -0.03827  -0.00000
   O      0.00000   0.23490   7.49830   0.00000  -0.02309   0.01776
PRIMCOORD    7
     14   1
   V      0.00000   1.82607   7.55364   0.00000   0.00128   0.01149
   V      1.79008   2.86318   9.94255  -0.00000   0.00128   0.01149
   V      1.79008   2.86318   1.72158  -0.00000   0.00128  -0.01149
   V      0.00000   1.82607   4.11049   0.00000   0.00128  -0.01149
   O      1.79008   2.31916   7.94564   0.00000   0.01095   0.00577
   O      0.00000   2.37009   9.55056  -0.00000   0.01095   0.00577
   O      0.00000   2.37009   2.11358   0.00000   0.01095  -0.00577
   O      1.79008   2.31916   3.71849   0.00000   0.01095  -0.00577
   O      0.00000   0.23490   4.16583   0.00000  -0.00013  -0.04206
   O      1.79008   4.45435   1.66623  -0.00000  -0.00013  -0.04206
   O      1.79008   4.45435   9.99790  -0.00000  -0.00013   0.04206
   O      1.79008   2.34079   0.00000  -0.00000  -0.02981  -0.00000
   O      0.00000   2.34846   5.83207   0.00000  -0.02981   0.00000
   O      0.00000   0.23490   7.49830   0.00000  -0.00013   0.04206
PRIMCOORD    8
     14   1
   V      0.00000   1.82607   7.55364   0.00000  -0.02422   0.01211
   V      1.79008   2.86318   9.94255  -0.00000   0.02422  -0.01211
   V      1.79008   2.86318   1.72158   0.00000  -0.02422  -0.01211
   V      0.00000   1.82607   4.11049  -0.00000   0.02422   0.01211
   O      1.79008   2.31916   7.94564   0.00000  -0.02939   0.00898
   O      0.00000   2.37009   9.55056  -0.00000   0.02939  -0.00898
   O      0.00000   2.37009   2.11358   0.00000  -0.02939  -0.00898
   O      1.79008   2.31916   3.71849  -0.00000   0.02939   0.00898
   O      0.00000   0.23490   4.16583  -0.00000   0.02438   0.00586
   O      1.79008   4.45435   1.66623   0.00000  -0.02438  -0.00586
   O      1.79008   4.45435   9.99790  -0.00000   0.02438  -0.00586
   O      1.79008   2.34079   0.00000  -0.00000   0.00000  -0.01968
   O      0.00000   2.34846   5.83207  -0.00000   0.00000   0.01968
   O      0.00000   0.23490   7.49830   0.00000  -0.02438   0.00586
PRIMCOORD    9
     14   1
   V      0.00000   1.82607   7.55364   0.03048   0.00000  -0.00000
   V      1.79008   2.86318   9.94255  -0.03048  -0.00000   0.00000
   V      1.79008   2.86318   1.72158   0.03048   0.00000   0.00000
   V      0.00000   1.82607   4.11049  -0.03048  -0.00000  -0.00000
   O      1.79008   2.31916   7.94564   0.00994   0.00000  -0.00000
   O      0.00000   2.37009   9.55056  -0.00994  -0.00000   0.00000
   O      0.00000   2.37009   2.11358   0.00994   0.00000   0.00000
   O      1.79008   2.31916   3.71849  -0.00994  -0.00000  -0.00000
   O      0.00000   0.23490   4.16583  -0.03836  -0.00000   0.00000
   O      1.79008   4.45435   1.66623   0.03836   0.00000   0.00000
   O      1.79008   4.45435   9.99790  -0.03836  -0.00000   0.00000
   O      1.79008   2.34079   0.00000   0.00000  -0.00000   0.00000
   O      0.00000   2.34846   5.83207  -0.00000   0.00000  -0.00000
   O      0.00000   0.23490   7.49830   0.03836   0.00000  -0.00000
PRIMCOORD   10
     14   1
   V      0.00000   1.82607   7.55364  -0.02986  -0.00000   0.00000
   V      1.79008   2.86318   9.94255   0.02986   0.00000  -0.00000
   V      1.79008   2.86318   1.72158   0.02986  -0.00000  -0.00000
   V      0.00000   1.82607   4.11049  -0.02986   0.00000   0.00000
   O      1.79008   2.31916   7.94564  -0.00992  -0.00000   0.00000
   O      0.00000   2.37009   9.55056   0.00992   0.00000  -0.00000
   O      0.00000   2.37009   2.11358   0.00992  -0.00000  -0.00000
   O      1.79008   2.31916   3.71849  -0.00992   0.00000   0.00000
   O      0.00000   0.23490   4.16583  -0.03884   0.00000  -0.00000
   O      1.79008   4.45435   1.66623   0.03884  -0.00000  -0.00000
   O      1.79008   4.45435   9.99790   0.03884   0.00000   0.00000
   O      1.79008   2.34079   0.00000   0.00155  -0.00000  -0.00000
   O      0.00000   2.34846   5.83207  -0.00155  -0.00000   0.00000
   O      0.00000   0.23490   7.49830  -0.03884  -0.00000   0.00000
PRIMCOORD   11
     14   1
   V      0.00000   1.82607   7.55364   0.00000  -0.00748  -0.00861
   V      1.79008   2.86318   9.94255   0.00000   0.00748   0.00861
   V      1.79008   2.86318   1.72158  -0.00000   0.00748  -0.00861
   V      0.00000   1.82607   4.11049   0.00000  -0.00748   0.00861
   O      1.79008   2.31916   7.94564   0.00000  -0.02530   0.00790
   O      0.00000   2.37009   9.55056   0.00000   0.02530  -0.00790
   O      0.00000   2.37009   2.11358   0.00000   0.02530   0.00790
   O      1.79008   2.31916   3.71849   0.00000  -0.02530  -0.00790
   O      0.00000   0.23490   4.16583  -0.00000  -0.00688   0.03749
   O      1.79008   4.45435   1.66623  -0.00000   0.00688  -0.03749
   O      1.79008   4.45435   9.99790  -0.00000   0.00688   0.03749
   O      1.79008   2.34079   0.00000   0.00000  -0.02070   0.00000
   O      0.00000   2.34846   5.83207   0.00000   0.02070  -0.00000
   O      0.00000   0.23490   7.49830  -0.00000  -0.00688  -0.03749
PRIMCOORD   12
     14   1
   V      0.00000   1.82607   7.55364   0.00000   0.00485   0.01858
   V      1.79008   2.86318   9.94255  -0.00000  -0.00485  -0.01858
   V      1.79008   2.86318   1.72158  -0.00000   0.00485  -0.01858
   V      0.00000   1.82607   4.11049   0.00000  -0.00485   0.01858
   O      1.79008   2.31916   7.94564   0.00000   0.01990  -0.00319
   O      0.00000   2.37009   9.55056   0.00000  -0.01990   0.00319
   O      0.00000   2.37009   2.11358  -0.00000   0.01990   0.00319
   O      1.79008   2.31916   3.71849   0.00000  -0.01990  -0.00319
   O      0.00000   0.23490   4.16583  -0.00000  -0.00479   0.03971
   O      1.79008   4.45435   1.66623  -0.00000   0.00479  -0.03971
   O      1.79008   4.45435   9.99790  -0.00000  -0.00479  -0.03971
   O      1.79008   2.34079   0.00000   0.00000  -0.00000  -0.01584
   O      0.00000   2.34846   5.83207  -0.00000   0.00000   0.01584
   O      0.00000   0.23490   7.49830  -0.00000   0.00479   0.03971
PRIMCOORD   13
     14   1
   V      0.00000   1.82607   7.55364  -0.00280  -0.00000   0.00000
   V      1.79008   2.86318   9.94255  -0.00280  -0.00000   0.00000
   V      1.79008   2.86318   1.72158  -0.00280  -0.00000   0.00000
   V      0.00000   1.82607   4.11049  -0.00280   0.00000   0.00000
   O      1.79008   2.31916   7.94564   0.00994  -0.00000   0.00000
   O      0.00000   2.37009   9.55056   0.00994   0.00000  -0.00000
   O      0.00000   2.37009   2.11358   0.00994  -0.00000  -0.00000
   O      1.79008   2.31916   3.71849   0.00994   0.00000   0.00000
   O      0.00000   0.23490   4.16583  -0.02892   0.00000  -0.00000
   O      1.79008   4.45435   1.66623  -0.02892  -0.00000   0.00000
   O      1.79008   4.45435   9.99790  -0.02892  -0.00000   0.00000
   O      1.79008   2.34079   0.00000   0.05581  -0.00000   0.00000
   O      0.00000   2.34846   5.83207   0.05581   0.00000   0.00000
   O      0.00000   0.23490   7.49830  -0.02892  -0.00000   0.00000
PRIMCOORD   14
     14   1
   V      0.00000   1.82607   7.55364  -0.00433   0.00000   0.00000
   V      1.79008   2.86318   9.94255   0.00433   0.00000   0.00000
   V      1.79008   2.86318   1.72158   0.00433  -0.00000   0.00000
   V      0.00000   1.82607   4.11049  -0.00433   0.00000  -0.00000
   O      1.79008   2.31916   7.94564  -0.00555  -0.00000   0.00000
   O      0.00000   2.37009   9.55056   0.00555  -0.00000   0.00000
   O      0.00000   2.37009   2.11358   0.00555   0.00000   0.00000
   O      1.79008   2.31916   3.71849  -0.00555   0.00000   0.00000
   O      0.00000   0.23490   4.16583   0.01337   0.00000  -0.00000
   O      1.79008   4.45435   1.66623  -0.01337  -0.00000  -0.00000
   O      1.79008   4.45435   9.99790  -0.01337   0.00000  -0.00000
   O      1.79008   2.34079   0.00000   0.06740  -0.00000   0.00000
   O      0.00000   2.34846   5.83207  -0.06740   0.00000   0.00000
   O      0.00000   0.23490   7.49830   0.01337   0.00000  -0.00000
PRIMCOORD   15
     14   1
   V      0.00000   1.82607   7.55364  -0.00000   0.00811   0.00199
   V      1.79008   2.86318   9.94255  -0.00000   0.00811   0.00199
   V      1.79008   2.86318   1.72158  -0.00000  -0.00811   0.00199
   V      0.00000   1.82607   4.11049   0.00000  -0.00811   0.00199
   O      1.79008   2.31916   7.94564   0.00000  -0.00388   0.02750
   O      0.00000   2.37009   9.55056  -0.00000  -0.00388   0.02750
   O      0.00000   2.37009   2.11358  -0.00000   0.00388   0.02750
   O      1.79008   2.31916   3.71849   0.00000   0.00388   0.02750
   O      0.00000   0.23490   4.16583  -0.00000  -0.00978  -0.03889
   O      1.79008   4.45435   1.66623   0.00000  -0.00978  -0.03889
   O      1.79008   4.45435   9.99790   0.00000   0.00978  -0.03889
   O      1.79008   2.34079   0.00000  -0.00000  -0.00000   0.01011
   O      0.00000   2.34846   5.83207   0.00000  -0.00000   0.01011
   O      0.00000   0.23490   7.49830  -0.00000   0.00978  -0.03889
PRIMCOORD   16
     14   1
   V      0.00000   1.82607   7.55364  -0.01351  -0.00000  -0.00000
   V      1.79008   2.86318   9.94255  -0.01351   0.00000  -0.00000
   V      1.79008   2.86318   1.72158   0.01351   0.00000   0.00000
   V      0.00000   1.82607   4.11049   0.01351   0.00000   0.00000
   O      1.79008   2.31916   7.94564  -0.01247   0.00000  -0.00000
   O      0.00000   2.37009   9.55056  -0.01247  -0.00000  -0.00000
   O      0.00000   2.37009   2.11358   0.01247  -0.00000   0.00000
   O      1.79008   2.31916   3.71849   0.01247   0.00000   0.00000
   O      0.00000   0.23490   4.16583  -0.04650   0.00000   0.00000
   O      1.79008   4.45435   1.66623  -0.04650   0.00000  -0.00000
   O      1.79008   4.45435   9.99790   0.04650   0.00000   0.00000
   O      1.79008   2.34079   0.00000  -0.00000   0.00000  -0.00000
   O      0.00000   2.34846   5.83207  -0.00000   0.00000  -0.00000
   O      0.00000   0.23490   7.49830   0.04650  -0.00000  -0.00000
PRIMCOORD   17
     14   1
   V      0.00000   1.82607   7.55364   0.01797   0.00000   0.00000
   V      1.79008   2.86318   9.94255  -0.01797   0.00000   0.00000
   V      1.79008   2.86318   1.72158   0.01797   0.00000  -0.00000
   V      0.00000   1.82607   4.11049  -0.01797   0.00000  -0.00000
   O      1.79008   2.31916   7.94564   0.00392  -0.00000   0.00000
   O      0.00000   2.37009   9.55056  -0.00392  -0.00000   0.00000
   O      0.00000   2.37009   2.11358   0.00392  -0.00000  -0.00000
   O      1.79008   2.31916   3.71849  -0.00392  -0.00000  -0.00000
   O      0.00000   0.23490   4.16583   0.04649   0.00000   0.00000
   O      1.79008   4.45435   1.66623  -0.04649   0.00000   0.00000
   O      1.79008   4.45435   9.99790   0.04649   0.00000  -0.00000
   O      1.79008   2.34079   0.00000   0.00000  -0.00000   0.00000
   O      0.00000   2.34846   5.83207   0.00000  -0.00000   0.00000
   O      0.00000   0.23490   7.49830  -0.04649   0.00000  -0.00000
PRIMCOORD   18
     14   1
   V      0.00000   1.82607   7.55364  -0.00000  -0.00515  -0.01482
   V      1.79008   2.86318   9.94255  -0.00000  -0.00515  -0.01482
   V      1.79008   2.86318   1.72158  -0.00000  -0.00515   0.01482
   V      0.00000   1.82607   4.11049  -0.00000  -0.00515   0.01482
   O      1.79008   2.31916   7.94564  -0.00000   0.02197  -0.03902
   O      0.00000   2.37009   9.55056  -0.00000   0.02197  -0.03902
   O      0.00000   2.37009   2.11358  -0.00000   0.02197   0.03902
   O      1.79008   2.31916   3.71849  -0.00000   0.02197   0.03902
   O      0.00000   0.23490   4.16583   0.00000  -0.00697  -0.01400
   O      1.79008   4.45435   1.66623   0.00000  -0.00697  -0.01400
   O      1.79008   4.45435   9.99790   0.00000  -0.00697   0.01400
   O      1.79008   2.34079   0.00000   0.00000   0.00279   0.00000
   O      0.00000   2.34846   5.83207   0.00000   0.00279  -0.00000
   O      0.00000   0.23490   7.49830   0.00000  -0.00697   0.01400
PRIMCOORD   19
     14   1
   V      0.00000   1.82607   7.55364  -0.01662   0.00000   0.00000
   V      1.79008   2.86318   9.94255  -0.01662   0.00000   0.00000
   V      1.79008   2.86318   1.72158  -0.01662   0.00000  -0.00000
   V      0.00000   1.82607   4.11049  -0.01662   0.00000  -0.00000
   O      1.79008   2.31916   7.94564  -0.00456  -0.00000   0.00000
   O      0.00000   2.37009   9.55056  -0.00456  -0.00000   0.00000
   O      0.00000   2.37009   2.11358  -0.00456  -0.00000  -0.00000
   O      1.79008   2.31916   3.71849  -0.00456  -0.00000  -0.00000
   O      0.00000   0.23490   4.16583   0.03907   0.00000   0.00000
   O      1.79008   4.45435   1.66623   0.03907   0.00000   0.00000
   O      1.79008   4.45435   9.99790   0.03907   0.00000  -0.00000
   O      1.79008   2.34079   0.00000   0.03679  -0.00000  -0.00000
   O      0.00000   2.34846   5.83207   0.03679  -0.00000   0.00000
   O      0.00000   0.23490   7.49830   0.03907   0.00000  -0.00000
PRIMCOORD   20
     14   1
   V      0.00000   1.82607   7.55364   0.01769  -0.00000  -0.00000
   V      1.79008   2.86318   9.94255  -0.01769  -0.00000  -0.00000
   V      1.79008   2.86318   1.72158  -0.01769  -0.00000   0.00000
   V      0.00000   1.82607   4.11049   0.01769  -0.00000   0.00000
   O      1.79008   2.31916   7.94564   0.00203   0.00000  -0.00000
   O      0.00000   2.37009   9.55056  -0.00203   0.00000  -0.00000
   O      0.00000   2.37009   2.11358  -0.00203   0.00000   0.00000
   O      1.79008   2.31916   3.71849   0.00203   0.00000   0.00000
   O      0.00000   0.23490   4.16583  -0.04332  -0.00000  -0.00000
   O      1.79008   4.45435   1.66623   0.04332  -0.00000   0.00000
   O      1.79008   4.45435   9.99790   0.04332  -0.00000   0.00000
   O      1.79008   2.34079   0.00000   0.02476  -0.00000  -0.00000
   O      0.00000   2.34846   5.83207  -0.02476   0.00000   0.00000
   O      0.00000   0.23490   7.49830  -0.04332  -0.00000   0.00000
PRIMCOORD   21
     14   1
   V      0.00000   1.82607   7.55364   0.00000  -0.00905  -0.00085
   V      1.79008   2.86318   9.94255   0.00000   0.00905   0.00085
   V      1.79008   2.86318   1.72158   0.00000   0.00905  -0.00085
   V      0.00000   1.82607   4.11049   0.00000  -0.00905   0.00085
   O      1.79008   2.31916   7.94564   0.00000   0.03659  -0.01430
   O      0.00000   2.37009   9.55056   0.00000  -0.03659   0.01430
   O      0.00000   2.37009   2.11358   0.00000  -0.03659  -0.01430
   O      1.79008   2.31916   3.71849   0.00000   0.03659   0.01430
   O      0.00000   0.23490   4.16583  -0.00000  -0.00857   0.02496
   O      1.79008   4.45435   1.66623  -0.00000   0.00857  -0.02496
   O      1.79008   4.45435   9.99790  -0.00000   0.00857   0.02496
   O      1.79008   2.34079   0.00000  -0.00000   0.01885  -0.00000
   O      0.00000   2.34846   5.83207  -0.00000  -0.01885   0.00000
   O      0.00000   0.23490   7.49830  -0.00000  -0.00857  -0.02496
PRIMCOORD   22
     14   1
   V      0.00000   1.82607   7.55364  -0.00000   0.00836  -0.00886
   V      1.79008   2.86318   9.94255  -0.00000  -0.00836   0.00886
   V      1.79008   2.86318   1.72158   0.00000   0.00836   0.00886
   V      0.00000   1.82607   4.11049   0.00000  -0.00836  -0.00886
   O      1.79008   2.31916   7.94564  -0.00000  -0.03529   0.00847
   O      0.00000   2.37009   9.55056  -0.00000   0.03529  -0.00847
   O      0.00000   2.37009   2.11358   0.00000  -0.03529  -0.00847
   O      1.79008   2.31916   3.71849  -0.00000   0.03529   0.00847
   O      0.00000   0.23490   4.16583  -0.00000  -0.00725   0.02999
   O      1.79008   4.45435   1.66623  -0.00000   0.00725  -0.02999
   O      1.79008   4.45435   9.99790   0.00000  -0.00725  -0.02999
   O      1.79008   2.34079   0.00000   0.00000   0.00000   0.01283
   O      0.00000   2.34846   5.83207  -0.00000  -0.00000  -0.01283
   O      0.00000   0.23490   7.49830   0.00000   0.00725   0.02999
PRIMCOORD   23
     14   1
   V      0.00000   1.82607   7.55364   0.00000  -0.00022   0.02058
   V      1.79008   2.86318   9.94255  -0.00000  -0.00022   0.02058
   V      1.79008   2.86318   1.72158  -0.00000   0.00022   0.02058
   V      0.00000   1.82607   4.11049   0.00000   0.00022   0.02058
   O      1.79008   2.31916   7.94564   0.00000   0.00959  -0.03672
   O      0.00000   2.37009   9.55056  -0.00000   0.00959  -0.03672
   O      0.00000   2.37009   2.11358  -0.00000  -0.00959  -0.03672
   O      1.79008   2.31916   3.71849  -0.00000  -0.00959  -0.03672
   O      0.00000   0.23490   4.16583  -0.00000  -0.00248  -0.02427
   O      1.79008   4.45435   1.66623   0.00000  -0.00248  -0.02427
   O      1.79008   4.45435   9.99790   0.00000   0.00248  -0.02427
   O      1.79008   2.34079   0.00000   0.00000  -0.00000  -0.00903
   O      0.00000   2.34846   5.83207  -0.00000   0.00000  -0.00903
   O      0.00000   0.23490   7.49830  -0.00000   0.00248  -0.02427
PRIMCOORD   24
     14   1
   V      0.00000   1.82607   7.55364   0.00000  -0.01455  -0.01846
   V      1.79008   2.86318   9.94255  -0.00000   0.01455   0.01846
   V      1.79008   2.86318   1.72158  -0.00000  -0.01455   0.01846
   V      0.00000   1.82607   4.11049  -0.00000   0.01455  -0.01846
   O      1.79008   2.31916   7.94564   0.00000   0.02134  -0.01918
   O      0.00000   2.37009   9.55056   0.00000  -0.02134   0.01918
   O      0.00000   2.37009   2.11358  -0.00000   0.02134   0.01918
   O      1.79008   2.31916   3.71849   0.00000  -0.02134  -0.01918
   O      0.00000   0.23490   4.16583   0.00000   0.01662   0.02639
   O      1.79008   4.45435   1.66623   0.00000  -0.01662  -0.02639
   O      1.79008   4.45435   9.99790   0.00000   0.01662  -0.02639
   O      1.79008   2.34079   0.00000   0.00000   0.00000   0.01737
   O      0.00000   2.34846   5.83207   0.00000  -0.00000  -0.01737
   O      0.00000   0.23490   7.49830  -0.00000  -0.01662   0.02639
PRIMCOORD   25
     14   1
   V      0.00000   1.82607   7.55364   0.00000  -0.00123   0.00529
   V      1.79008   2.86318   9.94255  -0.00000  -0.00123   0.00529
   V      1.79008   2.86318   1.72158   0.00000  -0.00123  -0.00529
   V      0.00000   1.82607   4.11049  -0.00000  -0.00123  -0.00529
   O      1.79008   2.31916   7.94564  -0.00000   0.02657  -0.00227
   O      0.00000   2.37009   9.55056  -0.00000   0.02657  -0.00227
   O      0.00000   2.37009   2.11358   0.00000   0.02657   0.00227
   O      1.79008   2.31916   3.71849  -0.00000   0.02657   0.00227
   O      0.00000   0.23490   4.16583   0.00000  -0.00004   0.02713
   O      1.79008   4.45435   1.66623  -0.00000  -0.00004   0.02713
   O      1.79008   4.45435   9.99790   0.00000  -0.00004  -0.02713
   O      1.79008   2.34079   0.00000  -0.00000  -0.04524  -0.00000
   O      0.00000   2.34846   5.83207   0.00000  -0.04524  -0.00000
   O      0.00000   0.23490   7.49830  -0.00000  -0.00004  -0.02713
PRIMCOORD   26
     14   1
   V      0.00000   1.82607   7.55364  -0.00000   0.01119   0.00318
   V      1.79008   2.86318   9.94255  -0.00000   0.01119   0.00318
   V      1.79008   2.86318   1.72158   0.00000  -0.01119   0.00318
   V      0.00000   1.82607   4.11049  -0.00000  -0.01119   0.00318
   O      1.79008   2.31916   7.94564   0.00000  -0.04359  -0.00755
   O      0.00000   2.37009   9.55056  -0.00000  -0.04359  -0.00755
   O      0.00000   2.37009   2.11358  -0.00000   0.04359  -0.00755
   O      1.79008   2.31916   3.71849  -0.00000   0.04359  -0.00755
   O      0.00000   0.23490   4.16583   0.00000  -0.01232   0.00745
   O      1.79008   4.45435   1.66623  -0.00000  -0.01232   0.00745
   O      1.79008   4.45435   9.99790   0.00000   0.01232   0.00745
   O      1.79008   2.34079   0.00000  -0.00000   0.00000  -0.02003
   O      0.00000   2.34846   5.83207   0.00000  -0.00000  -0.02003
   O      0.00000   0.23490   7.49830   0.00000   0.01232   0.00745
PRIMCOORD   27
     14   1
   V      0.00000   1.82607   7.55364  -0.00000   0.01118   0.01157
   V      1.79008   2.86318   9.94255  -0.00000  -0.01118  -0.01157
   V      1.79008   2.86318   1.72158  -0.00000  -0.01118   0.01157
   V      0.00000   1.82607   4.11049   0.00000   0.01118  -0.01157
   O      1.79008   2.31916   7.94564   0.00000  -0.01384   0.00521
   O      0.00000   2.37009   9.55056   0.00000   0.01384  -0.00521
   O      0.00000   2.37009   2.11358   0.00000   0.01384   0.00521
   O      1.79008   2.31916   3.71849  -0.00000  -0.01384  -0.00521
   O      0.00000   0.23490   4.16583   0.00000   0.01269   0.02195
   O      1.79008   4.45435   1.66623  -0.00000  -0.01269  -0.02195
   O      1.79008   4.45435   9.99790  -0.00000  -0.01269   0.02195
   O      1.79008   2.34079   0.00000   0.00000   0.05253   0.00000
   O      0.00000   2.34846   5.83207  -0.00000  -0.05253   0.00000
   O      0.00000   0.23490   7.49830   0.00000   0.01269  -0.02195
PRIMCOORD   28
     14   1
   V      0.00000   1.82607   7.55364  -0.01286  -0.00000   0.00000
   V      1.79008   2.86318   9.94255  -0.01286  -0.00000   0.00000
   V      1.79008   2.86318   1.72158   0.01286  -0.00000  -0.00000
   V      0.00000   1.82607   4.11049   0.01286  -0.00000  -0.00000
   O      1.79008   2.31916   7.94564   0.04831   0.00000   0.00000
   O      0.00000   2.37009   9.55056   0.04831   0.00000   0.00000
   O      0.00000   2.37009   2.11358  -0.04831   0.00000  -0.00000
   O      1.79008   2.31916   3.71849  -0.04831   0.00000   0.00000
   O      0.00000   0.23490   4.16583  -0.00105  -0.00000  -0.00000
   O      1.79008   4.45435   1.66623  -0.00105  -0.00000   0.00000
   O      1.79008   4.45435   9.99790   0.00105  -0.00000   0.00000
   O      1.79008   2.34079   0.00000  -0.00000   0.00000   0.00000
   O      0.00000   2.34846   5.83207  -0.00000   0.00000   0.00000
   O      0.00000   0.23490   7.49830   0.00105  -0.00000  -0.00000
PRIMCOORD   29
     14   1
   V      0.00000   1.82607   7.55364   0.00000   0.00477  -0.01980
   V      1.79008   2.86318   9.94255   0.00000  -0.00477   0.01980
   V      1.79008   2.86318   1.72158   0.00000  -0.00477  -0.01980
   V      0.00000   1.82607   4.11049   0.00000   0.00477   0.01980
   O      1.79008   2.31916   7.94564  -0.00000  -0.01456  -0.03914
   O      0.00000   2.37009   9.55056  -0.00000   0.01456   0.03914
   O      0.00000   2.37009   2.11358  -0.00000   0.01456  -0.03914
   O      1.79008   2.31916   3.71849  -0.00000  -0.01456   0.03914
   O      0.00000   0.23490   4.16583  -0.00000   0.00373  -0.00563
   O      1.79008   4.45435   1.66623  -0.00000  -0.00373   0.00563
   O      1.79008   4.45435   9.99790   0.00000  -0.00373  -0.00563
   O      1.79008   2.34079   0.00000   0.00000   0.02431   0.00000
   O      0.00000   2.34846   5.83207   0.00000  -0.02431  -0.00000
   O      0.00000   0.23490   7.49830  -0.00000   0.00373   0.00563
PRIMCOORD   30
     14   1
   V      0.00000   1.82607   7.55364  -0.01131   0.00000  -0.00000
   V      1.79008   2.86318   9.94255  -0.01131   0.00000   0.00000
   V      1.79008   2.86318   1.72158  -0.01131   0.00000  -0.00000
   V      0.00000   1.82607   4.11049  -0.01131   0.00000   0.00000
   O      1.79008   2.31916   7.94564   0.04650  -0.00000  -0.00000
   O      0.00000   2.37009   9.55056   0.04650  -0.00000   0.00000
   O      0.00000   2.37009   2.11358   0.04650  -0.00000  -0.00000
   O      1.79008   2.31916   3.71849   0.04650  -0.00000   0.00000
   O      0.00000   0.23490   4.16583  -0.00026   0.00000  -0.00000
   O      1.79008   4.45435   1.66623  -0.00026   0.00000   0.00000
   O      1.79008   4.45435   9.99790  -0.00026   0.00000  -0.00000
   O      1.79008   2.34079   0.00000  -0.02046  -0.00000   0.00000
   O      0.00000   2.34846   5.83207  -0.02046  -0.00000   0.00000
   O      0.00000   0.23490   7.49830  -0.00026   0.00000   0.00000
PRIMCOORD   31
     14   1
   V      0.00000   1.82607   7.55364  -0.00000  -0.01266   0.01006
   V      1.79008   2.86318   9.94255  -0.00000  -0.01266   0.01006
   V      1.79008   2.86318   1.72158  -0.00000  -0.01266  -0.01006
   V      0.00000   1.82607   4.11049  -0.00000  -0.01266  -0.01006
   O      1.79008   2.31916   7.94564  -0.00000   0.02995   0.01335
   O      0.00000   2.37009   9.55056   0.00000   0.02995   0.01335