
     Program PHONON v.6.7MaX starts on 13Oct2024 at 19:26:11 

     This program is part of the open-source Quantum ESPRESSO suite
     for quantum simulation of materials; please cite
         "P. Giannozzi et al., J. Phys.:Condens. Matter 21 395502 (2009);
         "P. Giannozzi et al., J. Phys.:Condens. Matter 29 465901 (2017);
          URL http://www.quantum-espresso.org", 
     in publications or presentations arising from this work. More details at
     http://www.quantum-espresso.org/quote

     Parallel version (MPI), running on    32 processors

     MPI processes distributed on     1 nodes
     R & G space division:  proc/nbgrp/npool/nimage =      32
     Reading input from ph.in
      Title line not specified: using 'default'.

     Reading xml data from directory:

     outdir/v2o5.save/
     Message from routine read_pp_mesh:
     mesh size missing, using the one in header
     Message from routine read_pp_mesh:
     mesh size missing, using the one in header

     IMPORTANT: XC functional enforced from input :
     Exchange-correlation= VDW-DF
                           (   1   4   4   0   1   0   0)
     Any further DFT definition will be discarded
     Please, verify this is what you really want


     Parallelization info
     --------------------
     sticks:   dense  smooth     PW     G-vecs:    dense   smooth      PW
     Min         119      47     12                15773     3985     560
     Max         120      48     13                15784     4000     571
     Sum        3819    1525    415               504869   127733   18131



     %%%%%%%%%%%%%%%%%%%%%%%%%%%%%%%%%%%%%%%%%%%%%%%%%%%%%%%%%%%%%%%%%%%%%%%%
     %                                                                      %
     % You are using vdW-DF, which was implemented by the Thonhauser group. %
     % Please cite the following two papers that made this development      %
     % possible and the two reviews that describe the various versions:     %
     %                                                                      %
     %   T. Thonhauser et al., PRL 115, 136402 (2015).                      %
     %   T. Thonhauser et al., PRB 76, 125112 (2007).                       %
     %   K. Berland et al., Rep. Prog. Phys. 78, 066501 (2015).             %
     %   D.C. Langreth et al., J. Phys.: Condens. Matter 21, 084203 (2009). %
     %                                                                      %
     %                                                                      %
     % If you are calculating the stress with vdW-DF, please also cite:     %
     %                                                                      %
     %   R. Sabatini et al., J. Phys.: Condens. Matter 24, 424209 (2012).   %
     %                                                                      %
     %%%%%%%%%%%%%%%%%%%%%%%%%%%%%%%%%%%%%%%%%%%%%%%%%%%%%%%%%%%%%%%%%%%%%%%%


     Reading collected, re-writing distributed wavefunctions

     Calculation of q =    0.0000000   0.0000000   0.0000000

     default                                                                    

     bravais-lattice index     =            8
     lattice parameter (alat)  =       6.7655  a.u.
     unit-cell volume          =    1321.4657 (a.u.)^3
     number of atoms/cell      =           14
     number of atomic types    =            2
     kinetic-energy cut-off    =      80.0000  Ry
     charge density cut-off    =     800.0000  Ry
     convergence threshold     =      1.0E-14
     beta                      =       0.5000
     number of iterations used =            4
     Exchange-correlation= VDW-DF
                           (   1   4   4   0   1   0   0)


     celldm(1)=    6.76554  celldm(2)=    1.30978  celldm(3)=    3.25798
     celldm(4)=    0.00000  celldm(5)=    0.00000  celldm(6)=    0.00000

     crystal axes: (cart. coord. in units of alat)
               a(1) = (  1.0000  0.0000  0.0000 )  
               a(2) = (  0.0000  1.3098  0.0000 )  
               a(3) = (  0.0000  0.0000  3.2580 )  

     reciprocal axes: (cart. coord. in units 2 pi/alat)
               b(1) = (  1.0000  0.0000  0.0000 )  
               b(2) = (  0.0000  0.7635  0.0000 )  
               b(3) = (  0.0000  0.0000  0.3069 )  


     Atoms inside the unit cell: 

     Cartesian axes

     site n.  atom      mass           positions (alat units)
        1     V   50.9415   tau(    1) = (    0.00000    0.51005    2.10986  )
        2     V   50.9415   tau(    2) = (    0.50000    0.79973    2.77712  )
        3     V   50.9415   tau(    3) = (    0.50000    0.79973    0.48087  )
        4     V   50.9415   tau(    4) = (    0.00000    0.51005    1.14813  )
        5     O   15.9994   tau(    5) = (    0.50000    0.64778    2.21935  )
        6     O   15.9994   tau(    6) = (    0.00000    0.66201    2.66763  )
        7     O   15.9994   tau(    7) = (    0.00000    0.66201    0.59036  )
        8     O   15.9994   tau(    8) = (    0.50000    0.64778    1.03864  )
        9     O   15.9994   tau(    9) = (    0.00000    0.06561    1.16359  )
       10     O   15.9994   tau(   10) = (    0.50000    1.24417    0.46541  )
       11     O   15.9994   tau(   11) = (    0.50000    1.24417    2.79258  )
       12     O   15.9994   tau(   12) = (    0.50000    0.65382    0.00000  )
       13     O   15.9994   tau(   13) = (    0.00000    0.65596    1.62899  )
       14     O   15.9994   tau(   14) = (    0.00000    0.06561    2.09440  )

     Computing dynamical matrix for 
                    q = (   0.0000000   0.0000000   0.0000000 )

      9 Sym.Ops. (with q -> -q+G )


     G cutoff =  927.5448  (  15784 G-vectors)     FFT grid: ( 64, 80,200)
     G cutoff =  371.0179  (   4000 G-vectors)  smooth grid: ( 40, 54,128)
     number of k points=     4
                       cart. coord. in units 2pi/alat
        k(    1) = (   0.0000000   0.0000000   0.0000000), wk =   0.2222222
        k(    2) = (   0.0000000   0.2544947   0.0000000), wk =   0.4444444
        k(    3) = (   0.3333333   0.0000000   0.0000000), wk =   0.4444444
        k(    4) = (   0.3333333   0.2544947   0.0000000), wk =   0.8888889

     PseudoPot. # 1 for V  read from file:
     /home/mpicuntureo/pseudos/v.nc.upf
     MD5 check sum: 40fb93c06b4f9d8c28c5ccd071294a04
     Pseudo is Norm-conserving + core correction, Zval = 13.0
     Generated using ONCVPSP code by D. R. Hamann
     Using radial grid of 1536 points,  6 beta functions with: 
                l(1) =   0
                l(2) =   0
                l(3) =   1
                l(4) =   1
                l(5) =   2
                l(6) =   2

     PseudoPot. # 2 for O  read from file:
     /home/mpicuntureo/pseudos/o.nc.upf
     MD5 check sum: 3e3f909f7470e8921608ab6b1f57bbae
     Pseudo is Norm-conserving + core correction, Zval =  6.0
     Generated using ONCVPSP code by D. R. Hamann
     Using radial grid of  936 points,  5 beta functions with: 
                l(1) =   0
                l(2) =   0
                l(3) =   1
                l(4) =   1
                l(5) =   2

     Mode symmetry, D_2h (mmm)  point group:


     Electric field:
     Dielectric constant
     Born effective charges as d Force / d E
     Raman tensor


     Atomic displacements:
     There are   42 irreducible representations

     Representation     1      1 modes -  To be done

     Representation     2      1 modes -  To be done

     Representation     3      1 modes -  To be done

     Representation     4      1 modes -  To be done

     Representation     5      1 modes -  To be done

     Representation     6      1 modes -  To be done

     Representation     7      1 modes -  To be done

     Representation     8      1 modes -  To be done

     Representation     9      1 modes -  To be done

     Representation    10      1 modes -  To be done

     Representation    11      1 modes -  To be done

     Representation    12      1 modes -  To be done

     Representation    13      1 modes -  To be done

     Representation    14      1 modes -  To be done

     Representation    15      1 modes -  To be done

     Representation    16      1 modes -  To be done

     Representation    17      1 modes -  To be done

     Representation    18      1 modes -  To be done

     Representation    19      1 modes -  To be done

     Representation    20      1 modes -  To be done

     Representation    21      1 modes -  To be done

     Representation    22      1 modes -  To be done

     Representation    23      1 modes -  To be done

     Representation    24      1 modes -  To be done

     Representation    25      1 modes -  To be done

     Representation    26      1 modes -  To be done

     Representation    27      1 modes -  To be done

     Representation    28      1 modes -  To be done

     Representation    29      1 modes -  To be done

     Representation    30      1 modes -  To be done

     Representation    31      1 modes -  To be done

     Representation    32      1 modes -  To be done

     Representation    33      1 modes -  To be done

     Representation    34      1 modes -  To be done

     Representation    35      1 modes -  To be done

     Representation    36      1 modes -  To be done

     Representation    37      1 modes -  To be done

     Representation    38      1 modes -  To be done

     Representation    39      1 modes -  To be done

     Representation    40      1 modes -  To be done

     Representation    41      1 modes -  To be done

     Representation    42      1 modes -  To be done



     Alpha used in Ewald sum =   2.8000
     PHONON       :      4.98s CPU      5.17s WALL


     Electric Fields Calculation

      iter #   1 total cpu time :    36.0 secs   av.it.:  11.9
      thresh= 1.000E-02 alpha_mix =  0.500 |ddv_scf|^2 =  3.282E-07

      iter #   2 total cpu time :    49.7 secs   av.it.:  21.3
      thresh= 5.729E-05 alpha_mix =  0.500 |ddv_scf|^2 =  1.563E-06

      iter #   3 total cpu time :    61.5 secs   av.it.:  17.7
      thresh= 1.250E-04 alpha_mix =  0.500 |ddv_scf|^2 =  1.037E-07

      iter #   4 total cpu time :    73.9 secs   av.it.:  18.8
      thresh= 3.221E-05 alpha_mix =  0.500 |ddv_scf|^2 =  6.609E-09

      iter #   5 total cpu time :    87.4 secs   av.it.:  20.8
      thresh= 8.130E-06 alpha_mix =  0.500 |ddv_scf|^2 =  1.532E-08

      iter #   6 total cpu time :   100.0 secs   av.it.:  19.3
      thresh= 1.238E-05 alpha_mix =  0.500 |ddv_scf|^2 =  2.887E-10

      iter #   7 total cpu time :   113.8 secs   av.it.:  21.7
      thresh= 1.699E-06 alpha_mix =  0.500 |ddv_scf|^2 =  1.502E-09

      iter #   8 total cpu time :   125.7 secs   av.it.:  18.1
      thresh= 3.875E-06 alpha_mix =  0.500 |ddv_scf|^2 =  1.799E-10

      iter #   9 total cpu time :   138.5 secs   av.it.:  19.2
      thresh= 1.341E-06 alpha_mix =  0.500 |ddv_scf|^2 =  1.454E-10

      iter #  10 total cpu time :   151.3 secs   av.it.:  19.6
      thresh= 1.206E-06 alpha_mix =  0.500 |ddv_scf|^2 =  2.223E-11

      iter #  11 total cpu time :   164.2 secs   av.it.:  19.8
      thresh= 4.715E-07 alpha_mix =  0.500 |ddv_scf|^2 =  2.586E-12

      iter #  12 total cpu time :   177.2 secs   av.it.:  19.8
      thresh= 1.608E-07 alpha_mix =  0.500 |ddv_scf|^2 =  2.491E-12

      iter #  13 total cpu time :   189.9 secs   av.it.:  19.4
      thresh= 1.578E-07 alpha_mix =  0.500 |ddv_scf|^2 =  1.158E-12

      iter #  14 total cpu time :   202.1 secs   av.it.:  18.2
      thresh= 1.076E-07 alpha_mix =  0.500 |ddv_scf|^2 =  3.965E-13

      iter #  15 total cpu time :   215.2 secs   av.it.:  18.9
      thresh= 6.297E-08 alpha_mix =  0.500 |ddv_scf|^2 =  3.781E-13

      iter #  16 total cpu time :   227.9 secs   av.it.:  19.1
      thresh= 6.149E-08 alpha_mix =  0.500 |ddv_scf|^2 =  1.877E-13

      iter #  17 total cpu time :   240.0 secs   av.it.:  18.0
      thresh= 4.332E-08 alpha_mix =  0.500 |ddv_scf|^2 =  1.312E-14

      iter #  18 total cpu time :   252.9 secs   av.it.:  19.7
      thresh= 1.145E-08 alpha_mix =  0.500 |ddv_scf|^2 =  7.035E-15

     End of electric fields calculation

          Dielectric constant in cartesian axis 

          (       5.650965889       0.000000000       0.000000000 )
          (       0.000000000       3.300272117       0.000000000 )
          (       0.000000000       0.000000000       6.393983787 )

          Effective charges (d Force / dE) in cartesian axis

           atom      1   V  
      Ex  (        6.26789        0.00000        0.00000 )
      Ey  (       -0.00000        2.83722       -0.04065 )
      Ez  (        0.00000       -0.49396        6.64824 )
           atom      2   V  
      Ex  (        6.26789        0.00000        0.00000 )
      Ey  (        0.00000        2.83722       -0.04065 )
      Ez  (       -0.00000       -0.49396        6.64824 )
           atom      3   V  
      Ex  (        6.26789        0.00000       -0.00000 )
      Ey  (       -0.00000        2.83722        0.04065 )
      Ez  (        0.00000        0.49396        6.64824 )
           atom      4   V  
      Ex  (        6.26789        0.00000        0.00000 )
      Ey  (        0.00000        2.83722        0.04065 )
      Ez  (        0.00000        0.49396        6.64824 )
           atom      5   O  
      Ex  (       -5.22693       -0.00000        0.00000 )
      Ey  (        0.00000       -0.69744       -0.29785 )
      Ez  (        0.00000       -0.80718       -2.70826 )
           atom      6   O  
      Ex  (       -5.22693       -0.00000       -0.00000 )
      Ey  (        0.00000       -0.69744       -0.29785 )
      Ez  (       -0.00000       -0.80718       -2.70826 )
           atom      7   O  
      Ex  (       -5.22693       -0.00000       -0.00000 )
      Ey  (        0.00000       -0.69744        0.29785 )
      Ez  (        0.00000        0.80718       -2.70826 )
           atom      8   O  
      Ex  (       -5.22693       -0.00000        0.00000 )
      Ey  (        0.00000       -0.69744        0.29785 )
      Ez  (        0.00000        0.80718       -2.70826 )
           atom      9   O  
      Ex  (       -0.51457       -0.00000        0.00000 )
      Ey  (        0.00000       -1.83675       -0.08004 )
      Ez  (        0.00000       -0.18196       -0.47932 )
           atom     10   O  
      Ex  (       -0.51457       -0.00000        0.00000 )
      Ey  (        0.00000       -1.83675       -0.08004 )
      Ez  (        0.00000       -0.18196       -0.47932 )
           atom     11   O  
      Ex  (       -0.51457       -0.00000        0.00000 )
      Ey  (        0.00000       -1.83675        0.08004 )
      Ez  (        0.00000        0.18196       -0.47932 )
           atom     12   O  
      Ex  (       -1.03764       -0.00000        0.00000 )
      Ey  (        0.00000       -0.62975        0.00000 )
      Ez  (       -0.00000        0.00000       -7.05577 )
           atom     13   O  
      Ex  (       -1.03764       -0.00000       -0.00000 )
      Ey  (        0.00000       -0.62975        0.00000 )
      Ez  (        0.00000        0.00000       -7.05577 )
           atom     14   O  
      Ex  (       -0.51457       -0.00000       -0.00000 )
      Ey  (        0.00000       -1.83675        0.08004 )
      Ez  (        0.00000        0.18196       -0.47932 )

     Calling punch_plot_e
     Writing on file  drho                                                                                                                                                                                                                                                            

     Computing Pc [DH,Drho] |psi> 

     Derivative coefficient:  0.001000    Threshold: 1.00E-12
     Non-scf  u_k: avg # of iterations = 29.7
     Non-scf Du_k: avg # of iterations = 57.5

          Dielectric constant from finite-differences

          (       5.651752002       0.000000000       0.000000000 )
          (       0.000000000       3.303632085       0.000000000 )
          (       0.000000000       0.000000000       6.395080903 )

     Computing Second order response 


      iter #   1   av.it.:  18.1
      thresh= 1.000E-02 alpha_mix =  0.500 |ddv_scf|^2 =  3.327E-03


      iter #   2   av.it.:  18.6
      thresh= 5.768E-03 alpha_mix =  0.500 |ddv_scf|^2 =  2.367E-02


      iter #   3   av.it.:  15.1
      thresh= 1.000E-02 alpha_mix =  0.500 |ddv_scf|^2 =  9.252E-04


      iter #   4   av.it.:  15.5
      thresh= 3.042E-03 alpha_mix =  0.500 |ddv_scf|^2 =  2.907E-06


      iter #   5   av.it.:  18.9
      thresh= 1.705E-04 alpha_mix =  0.500 |ddv_scf|^2 =  1.424E-06


      iter #   6   av.it.:  19.1
      thresh= 1.193E-04 alpha_mix =  0.500 |ddv_scf|^2 =  5.733E-07


      iter #   7   av.it.:  16.5
      thresh= 7.572E-05 alpha_mix =  0.500 |ddv_scf|^2 =  3.181E-07


      iter #   8   av.it.:  19.2
      thresh= 5.640E-05 alpha_mix =  0.500 |ddv_scf|^2 =  8.266E-08


      iter #   9   av.it.:  17.1
      thresh= 2.875E-05 alpha_mix =  0.500 |ddv_scf|^2 =  1.134E-08


      iter #  10   av.it.:  18.8
      thresh= 1.065E-05 alpha_mix =  0.500 |ddv_scf|^2 =  2.197E-08


      iter #  11   av.it.:  16.2
      thresh= 1.482E-05 alpha_mix =  0.500 |ddv_scf|^2 =  1.357E-09


      iter #  12   av.it.:  18.7
      thresh= 3.684E-06 alpha_mix =  0.500 |ddv_scf|^2 =  6.283E-10


      iter #  13   av.it.:  17.9
      thresh= 2.507E-06 alpha_mix =  0.500 |ddv_scf|^2 =  9.746E-10


      iter #  14   av.it.:  17.4
      thresh= 3.122E-06 alpha_mix =  0.500 |ddv_scf|^2 =  8.653E-11


      iter #  15   av.it.:  18.0
      thresh= 9.302E-07 alpha_mix =  0.500 |ddv_scf|^2 =  5.163E-11


      iter #  16   av.it.:  18.9
      thresh= 7.185E-07 alpha_mix =  0.500 |ddv_scf|^2 =  1.176E-11


      iter #  17   av.it.:  18.2
      thresh= 3.429E-07 alpha_mix =  0.500 |ddv_scf|^2 =  1.306E-11


      iter #  18   av.it.:  18.7
      thresh= 3.614E-07 alpha_mix =  0.500 |ddv_scf|^2 =  9.620E-12


      iter #  19   av.it.:  16.5
      thresh= 3.102E-07 alpha_mix =  0.500 |ddv_scf|^2 =  2.098E-12


      iter #  20   av.it.:  18.2
      thresh= 1.448E-07 alpha_mix =  0.500 |ddv_scf|^2 =  1.307E-12


      iter #  21   av.it.:  17.2
      thresh= 1.143E-07 alpha_mix =  0.500 |ddv_scf|^2 =  1.913E-13


      iter #  22   av.it.:  17.3
      thresh= 4.374E-08 alpha_mix =  0.500 |ddv_scf|^2 =  2.436E-14


      iter #  23   av.it.:  18.5
      thresh= 1.561E-08 alpha_mix =  0.500 |ddv_scf|^2 =  4.207E-14


      iter #  24   av.it.:  16.7
      thresh= 2.051E-08 alpha_mix =  0.500 |ddv_scf|^2 =  2.197E-14


      iter #  25   av.it.:  16.7
      thresh= 1.482E-08 alpha_mix =  0.500 |ddv_scf|^2 =  2.029E-14


      iter #  26   av.it.:  17.8
      thresh= 1.424E-08 alpha_mix =  0.500 |ddv_scf|^2 =  3.290E-14


      iter #  27   av.it.:  15.0
      thresh= 1.814E-08 alpha_mix =  0.500 |ddv_scf|^2 =  1.154E-15

          Raman tensor (au^-1) in cartesian axis 

           atom      1
          (       0.000000000       0.492067634       1.049325973 )
          (       0.492067634       0.000000000       0.000000000 )
          (       1.049325973       0.000000000      -0.000000000 )

          (       0.551840275       0.000000000       0.000000000 )
          (       0.000000000       0.325876147      -0.049819575 )
          (       0.000000000      -0.049819575       0.368121738 )

          (      -0.393843980       0.000000000       0.000000000 )
          (       0.000000000       0.057747871       0.040982908 )
          (       0.000000000       0.040982908       0.645042416 )

           atom      2
          (       0.000000000      -0.492067634      -1.049325973 )
          (      -0.492067634       0.000000000       0.000000000 )
          (      -1.049325973       0.000000000       0.000000000 )

          (      -0.551840275       0.000000000       0.000000000 )
          (       0.000000000      -0.325876147       0.049819575 )
          (       0.000000000       0.049819575      -0.368121738 )

          (       0.393843980      -0.000000000       0.000000000 )
          (      -0.000000000      -0.057747871      -0.040982908 )
          (       0.000000000      -0.040982908      -0.645042416 )

           atom      3
          (       0.000000000      -0.492067634       1.049325973 )
          (      -0.492067634       0.000000000       0.000000000 )
          (       1.049325973       0.000000000       0.000000000 )

          (      -0.551840275       0.000000000       0.000000000 )
          (       0.000000000      -0.325876147      -0.049819575 )
          (       0.000000000      -0.049819575      -0.368121738 )

          (      -0.393843980       0.000000000       0.000000000 )
          (       0.000000000       0.057747871      -0.040982908 )
          (       0.000000000      -0.040982908       0.645042416 )

           atom      4
          (       0.000000000       0.492067634      -1.049325973 )
          (       0.492067634       0.000000000       0.000000000 )
          (      -1.049325973       0.000000000       0.000000000 )

          (       0.551840275       0.000000000       0.000000000 )
          (       0.000000000       0.325876147       0.049819575 )
          (       0.000000000       0.049819575       0.368121738 )

          (       0.393843980      -0.000000000       0.000000000 )
          (      -0.000000000      -0.057747871       0.040982908 )
          (       0.000000000       0.040982908      -0.645042416 )

           atom      5
          (       0.000000000      -0.317230485      -0.699359815 )
          (      -0.317230485      -0.000000000      -0.000000000 )
          (      -0.699359815      -0.000000000       0.000000000 )

          (      -0.138401900       0.000000000       0.000000000 )
          (       0.000000000       0.049825981       0.066327096 )
          (       0.000000000       0.066327096       0.233151798 )

          (      -0.346110674       0.000000000      -0.000000000 )
          (       0.000000000      -0.010243899       0.160303068 )
          (      -0.000000000       0.160303068      -0.118269996 )

           atom      6
          (       0.000000000       0.317230485       0.699359815 )
          (       0.317230485       0.000000000       0.000000000 )
          (       0.699359815       0.000000000       0.000000000 )

          (       0.138401900       0.000000000       0.000000000 )
          (       0.000000000      -0.049825981      -0.066327096 )
          (       0.000000000      -0.066327096      -0.233151798 )

          (       0.346110674      -0.000000000       0.000000000 )
          (      -0.000000000       0.010243899      -0.160303068 )
          (       0.000000000      -0.160303068       0.118269996 )

           atom      7
          (       0.000000000       0.317230485      -0.699359815 )
          (       0.317230485       0.000000000      -0.000000000 )
          (      -0.699359815      -0.000000000       0.000000000 )

          (       0.138401900      -0.000000000       0.000000000 )
          (      -0.000000000      -0.049825981       0.066327096 )
          (       0.000000000       0.066327096      -0.233151798 )

          (      -0.346110674       0.000000000       0.000000000 )
          (       0.000000000      -0.010243899      -0.160303068 )
          (       0.000000000      -0.160303068      -0.118269996 )

           atom      8
          (       0.000000000      -0.317230485       0.699359815 )
          (      -0.317230485       0.000000000       0.000000000 )
          (       0.699359815       0.000000000       0.000000000 )

          (      -0.138401900      -0.000000000       0.000000000 )
          (      -0.000000000       0.049825981      -0.066327096 )
          (       0.000000000      -0.066327096       0.233151798 )

          (       0.346110674      -0.000000000       0.000000000 )
          (      -0.000000000       0.010243899       0.160303068 )
          (       0.000000000       0.160303068       0.118269996 )

           atom      9
          (      -0.000000000      -0.149109424      -0.007721254 )
          (      -0.149109424       0.000000000       0.000000000 )
          (      -0.007721254       0.000000000       0.000000000 )

          (      -0.575865038       0.000000000       0.000000000 )
          (       0.000000000      -0.565134954      -0.047668123 )
          (       0.000000000      -0.047668123      -0.531043087 )

          (      -0.005715074       0.000000000      -0.000000000 )
          (       0.000000000      -0.040158142      -0.123508961 )
          (      -0.000000000      -0.123508961       0.104420856 )

           atom     10
          (       0.000000000       0.149109424       0.007721254 )
          (       0.149109424      -0.000000000       0.000000000 )
          (       0.007721254       0.000000000       0.000000000 )

          (       0.575865038       0.000000000       0.000000000 )
          (       0.000000000       0.565134954       0.047668123 )
          (       0.000000000       0.047668123       0.531043087 )

          (       0.005715074       0.000000000       0.000000000 )
          (       0.000000000       0.040158142       0.123508961 )
          (       0.000000000       0.123508961      -0.104420856 )

           atom     11
          (       0.000000000       0.149109424      -0.007721254 )
          (       0.149109424      -0.000000000       0.000000000 )
          (      -0.007721254       0.000000000       0.000000000 )

          (       0.575865038       0.000000000       0.000000000 )
          (       0.000000000       0.565134954      -0.047668123 )
          (       0.000000000      -0.047668123       0.531043087 )

          (      -0.005715074       0.000000000       0.000000000 )
          (       0.000000000      -0.040158142       0.123508961 )
          (       0.000000000       0.123508961       0.104420856 )

           atom     12
          (       0.000000000      -0.022000860       0.000000000 )
          (      -0.022000860       0.000000000       0.000000000 )
          (       0.000000000       0.000000000       0.000000000 )

          (      -0.082581789       0.000000000       0.000000000 )
          (       0.000000000      -0.102714705      -0.000000000 )
          (       0.000000000      -0.000000000      -0.207679432 )

          (       0.000000000       0.000000000       0.000000000 )
          (       0.000000000       0.000000000      -0.063300567 )
          (       0.000000000      -0.063300567       0.000000000 )

           atom     13
          (      -0.000000000       0.022000860       0.000000000 )
          (       0.022000860      -0.000000000       0.000000000 )
          (       0.000000000       0.000000000       0.000000000 )

          (       0.082581789      -0.000000000       0.000000000 )
          (      -0.000000000       0.102714705       0.000000000 )
          (       0.000000000       0.000000000       0.207679432 )

          (       0.000000000       0.000000000       0.000000000 )
          (       0.000000000       0.000000000       0.063300567 )
          (       0.000000000       0.063300567       0.000000000 )

           atom     14
          (       0.000000000      -0.149109424       0.007721254 )
          (      -0.149109424       0.000000000       0.000000000 )
          (       0.007721254       0.000000000       0.000000000 )

          (      -0.575865038      -0.000000000       0.000000000 )
          (      -0.000000000      -0.565134954       0.047668123 )
          (       0.000000000       0.047668123      -0.531043087 )

          (       0.005715074       0.000000000       0.000000000 )
          (       0.000000000       0.040158142      -0.123508961 )
          (       0.000000000      -0.123508961      -0.104420856 )


     Raman tensor (A^2)

     atom #    1    pol.  1
      0.000000000000E+00      0.144901575134E+02      0.309000177985E+02
      0.144901575134E+02      0.000000000000E+00      0.000000000000E+00
      0.309000177985E+02      0.000000000000E+00     -0.770017590970E-16
     atom #    1    pol.  2
      0.162503118653E+02      0.000000000000E+00      0.000000000000E+00
      0.000000000000E+00      0.959623510906E+01     -0.146706150579E+01
      0.000000000000E+00     -0.146706150579E+01      0.108402617820E+02
     atom #    1    pol.  3
     -0.115977173052E+02      0.000000000000E+00      0.000000000000E+00
      0.000000000000E+00      0.170052995540E+01      0.120684383624E+01
      0.000000000000E+00      0.120684383624E+01      0.189948811477E+02
     atom #    2    pol.  1
      0.000000000000E+00     -0.144901575134E+02     -0.309000177985E+02
     -0.144901575134E+02      0.000000000000E+00      0.000000000000E+00
     -0.309000177985E+02      0.000000000000E+00      0.000000000000E+00
     atom #    2    pol.  2
     -0.162503118653E+02      0.000000000000E+00      0.000000000000E+00
      0.000000000000E+00     -0.959623510906E+01      0.146706150579E+01
      0.000000000000E+00      0.146706150579E+01     -0.108402617820E+02
     atom #    2    pol.  3
      0.115977173052E+02     -0.957678201193E-16      0.000000000000E+00
     -0.957678201193E-16     -0.170052995540E+01     -0.120684383624E+01
      0.000000000000E+00     -0.120684383624E+01     -0.189948811477E+02
     atom #    3    pol.  1
      0.000000000000E+00     -0.144901575134E+02      0.309000177985E+02
     -0.144901575134E+02      0.000000000000E+00      0.000000000000E+00
      0.309000177985E+02      0.000000000000E+00      0.770017590970E-16
     atom #    3    pol.  2
     -0.162503118653E+02      0.000000000000E+00      0.000000000000E+00
      0.000000000000E+00     -0.959623510906E+01     -0.146706150579E+01
      0.000000000000E+00     -0.146706150579E+01     -0.108402617820E+02
     atom #    3    pol.  3
     -0.115977173052E+02      0.000000000000E+00      0.000000000000E+00
      0.000000000000E+00      0.170052995540E+01     -0.120684383624E+01
      0.000000000000E+00     -0.120684383624E+01      0.189948811477E+02
     atom #    4    pol.  1
      0.000000000000E+00      0.144901575134E+02     -0.309000177985E+02
      0.144901575134E+02      0.000000000000E+00      0.000000000000E+00
     -0.309000177985E+02      0.000000000000E+00      0.000000000000E+00
     atom #    4    pol.  2
      0.162503118653E+02      0.000000000000E+00      0.000000000000E+00
      0.000000000000E+00      0.959623510906E+01      0.146706150579E+01
      0.000000000000E+00      0.146706150579E+01      0.108402617820E+02
     atom #    4    pol.  3
      0.115977173052E+02     -0.957678201193E-16      0.000000000000E+00
     -0.957678201193E-16     -0.170052995540E+01      0.120684383624E+01
      0.000000000000E+00      0.120684383624E+01     -0.189948811477E+02
     atom #    5    pol.  1
      0.000000000000E+00     -0.934164203397E+01     -0.205943922830E+02
     -0.934164203397E+01     -0.595536743443E-16     -0.119709775149E-16
     -0.205943922830E+02     -0.119709775149E-16      0.000000000000E+00
     atom #    5    pol.  2
     -0.407558878332E+01      0.595536743443E-16      0.000000000000E+00
      0.595536743443E-16      0.146725017114E+01      0.195316661262E+01
      0.000000000000E+00      0.195316661262E+01      0.686573562222E+01
     atom #    5    pol.  3
     -0.101920911757E+02      0.000000000000E+00     -0.385008795485E-16
      0.000000000000E+00     -0.301657134539E+00      0.472052323758E+01
     -0.385008795485E-16      0.472052323758E+01     -0.348275471093E+01
     atom #    6    pol.  1
      0.000000000000E+00      0.934164203397E+01      0.205943922830E+02
      0.934164203397E+01      0.000000000000E+00      0.000000000000E+00
      0.205943922830E+02      0.000000000000E+00      0.000000000000E+00
     atom #    6    pol.  2
      0.407558878332E+01      0.595536743443E-16      0.000000000000E+00
      0.595536743443E-16     -0.146725017114E+01     -0.195316661262E+01
      0.000000000000E+00     -0.195316661262E+01     -0.686573562222E+01
     atom #    6    pol.  3
      0.101920911757E+02     -0.119709775149E-16      0.000000000000E+00
     -0.119709775149E-16      0.301657134539E+00     -0.472052323758E+01
      0.000000000000E+00     -0.472052323758E+01      0.348275471093E+01
     atom #    7    pol.  1
      0.000000000000E+00      0.934164203397E+01     -0.205943922830E+02
      0.934164203397E+01      0.595536743443E-16     -0.119709775149E-16
     -0.205943922830E+02     -0.119709775149E-16      0.000000000000E+00
     atom #    7    pol.  2
      0.407558878332E+01     -0.595536743443E-16      0.000000000000E+00
     -0.595536743443E-16     -0.146725017114E+01      0.195316661262E+01
      0.000000000000E+00      0.195316661262E+01     -0.686573562222E+01
     atom #    7    pol.  3
     -0.101920911757E+02      0.000000000000E+00      0.385008795485E-16
      0.000000000000E+00     -0.301657134539E+00     -0.472052323758E+01
      0.385008795485E-16     -0.472052323758E+01     -0.348275471093E+01
     atom #    8    pol.  1
      0.000000000000E+00     -0.934164203397E+01      0.205943922830E+02
     -0.934164203397E+01      0.000000000000E+00      0.000000000000E+00
      0.205943922830E+02      0.000000000000E+00      0.000000000000E+00
     atom #    8    pol.  2
     -0.407558878332E+01     -0.595536743443E-16      0.000000000000E+00
     -0.595536743443E-16      0.146725017114E+01     -0.195316661262E+01
      0.000000000000E+00     -0.195316661262E+01      0.686573562222E+01
     atom #    8    pol.  3
      0.101920911757E+02     -0.119709775149E-16      0.000000000000E+00
     -0.119709775149E-16      0.301657134539E+00      0.472052323758E+01
      0.000000000000E+00      0.472052323758E+01      0.348275471093E+01
     atom #    9    pol.  1
     -0.255416275039E-16     -0.439089850740E+01     -0.227371576445E+00
     -0.439089850740E+01      0.119107348689E-15      0.000000000000E+00
     -0.227371576445E+00      0.000000000000E+00      0.000000000000E+00
     atom #    9    pol.  2
     -0.169577808811E+02      0.000000000000E+00      0.000000000000E+00
      0.000000000000E+00     -0.166418068150E+02     -0.140370665313E+01
      0.000000000000E+00     -0.140370665313E+01     -0.156378868481E+02
     atom #    9    pol.  3
     -0.168294599677E+00      0.000000000000E+00     -0.770017590970E-16
      0.000000000000E+00     -0.118255653834E+01     -0.363702910012E+01
     -0.770017590970E-16     -0.363702910012E+01      0.307493228527E+01
     atom #   10    pol.  1
      0.000000000000E+00      0.439089850740E+01      0.227371576445E+00
      0.439089850740E+01     -0.119107348689E-15      0.119709775149E-16
      0.227371576445E+00      0.119709775149E-16      0.000000000000E+00
     atom #   10    pol.  2
      0.169577808811E+02      0.595536743443E-16      0.000000000000E+00
      0.595536743443E-16      0.166418068150E+02      0.140370665313E+01
      0.000000000000E+00      0.140370665313E+01      0.156378868481E+02
     atom #   10    pol.  3
      0.168294599677E+00      0.000000000000E+00      0.000000000000E+00
      0.000000000000E+00      0.118255653834E+01      0.363702910012E+01
      0.000000000000E+00      0.363702910012E+01     -0.307493228527E+01
     atom #   11    pol.  1
      0.255416275039E-16      0.439089850740E+01     -0.227371576445E+00
      0.439089850740E+01     -0.119107348689E-15      0.000000000000E+00
     -0.227371576445E+00      0.000000000000E+00      0.000000000000E+00
     atom #   11    pol.  2
      0.169577808811E+02      0.000000000000E+00      0.000000000000E+00
      0.000000000000E+00      0.166418068150E+02     -0.140370665313E+01
      0.000000000000E+00     -0.140370665313E+01      0.156378868481E+02
     atom #   11    pol.  3
     -0.168294599677E+00      0.000000000000E+00      0.770017590970E-16
      0.000000000000E+00     -0.118255653834E+01      0.363702910012E+01
      0.770017590970E-16      0.363702910012E+01      0.307493228527E+01
     atom #   12    pol.  1
      0.255416275039E-16     -0.647870126510E+00      0.000000000000E+00
     -0.647870126510E+00      0.297768371722E-16      0.000000000000E+00
      0.000000000000E+00      0.000000000000E+00      0.000000000000E+00
     atom #   12    pol.  2
     -0.243182652589E+01      0.595536743443E-16      0.365325241544E-21
      0.595536743443E-16     -0.302469039936E+01     -0.139460008136E-21
      0.365325241544E-21     -0.139460008136E-21     -0.611563834526E+01
     atom #   12    pol.  3
      0.765596009310E-20      0.000000000000E+00      0.000000000000E+00
      0.000000000000E+00      0.000000000000E+00     -0.186404290876E+01
      0.000000000000E+00     -0.186404290876E+01      0.000000000000E+00
     atom #   13    pol.  1
     -0.255416275039E-16      0.647870126510E+00      0.191399002327E-20
      0.647870126510E+00     -0.297768371722E-16      0.000000000000E+00
      0.191399002327E-20      0.000000000000E+00      0.000000000000E+00
     atom #   13    pol.  2
      0.243182652589E+01     -0.595536743443E-16      0.913313103860E-22
     -0.595536743443E-16      0.302469039936E+01      0.000000000000E+00
      0.913313103860E-22      0.000000000000E+00      0.611563834526E+01
     atom #   13    pol.  3
      0.000000000000E+00      0.000000000000E+00      0.000000000000E+00
      0.000000000000E+00      0.000000000000E+00      0.186404290876E+01
      0.000000000000E+00      0.186404290876E+01      0.288510586617E-20
     atom #   14    pol.  1
      0.000000000000E+00     -0.439089850740E+01      0.227371576445E+00
     -0.439089850740E+01      0.119107348689E-15      0.119709775149E-16
      0.227371576445E+00      0.119709775149E-16      0.000000000000E+00
     atom #   14    pol.  2
     -0.169577808811E+02     -0.595536743443E-16      0.000000000000E+00
     -0.595536743443E-16     -0.166418068150E+02      0.140370665313E+01
      0.000000000000E+00      0.140370665313E+01     -0.156378868481E+02
     atom #   14    pol.  3
      0.168294599677E+00      0.000000000000E+00      0.000000000000E+00
      0.000000000000E+00      0.118255653834E+01     -0.363702910012E+01
      0.000000000000E+00     -0.363702910012E+01     -0.307493228527E+01


     Representation #   1 mode #   1

     Self-consistent Calculation

      iter #   1 total cpu time :  1395.9 secs   av.it.:   9.0
      thresh= 1.000E-02 alpha_mix =  0.500 |ddv_scf|^2 =  6.644E-08

      iter #   2 total cpu time :  1400.5 secs   av.it.:  20.5
      thresh= 2.578E-05 alpha_mix =  0.500 |ddv_scf|^2 =  3.048E-08

      iter #   3 total cpu time :  1405.3 secs   av.it.:  21.2
      thresh= 1.746E-05 alpha_mix =  0.500 |ddv_scf|^2 =  1.006E-07

      iter #   4 total cpu time :  1409.6 secs   av.it.:  18.5
      thresh= 3.172E-05 alpha_mix =  0.500 |ddv_scf|^2 =  3.537E-09

      iter #   5 total cpu time :  1414.1 secs   av.it.:  19.8
      thresh= 5.947E-06 alpha_mix =  0.500 |ddv_scf|^2 =  1.014E-10

      iter #   6 total cpu time :  1418.5 secs   av.it.:  19.5
      thresh= 1.007E-06 alpha_mix =  0.500 |ddv_scf|^2 =  5.081E-11

      iter #   7 total cpu time :  1423.0 secs   av.it.:  19.8
      thresh= 7.128E-07 alpha_mix =  0.500 |ddv_scf|^2 =  4.602E-12

      iter #   8 total cpu time :  1427.5 secs   av.it.:  19.8
      thresh= 2.145E-07 alpha_mix =  0.500 |ddv_scf|^2 =  2.291E-13

      iter #   9 total cpu time :  1432.1 secs   av.it.:  20.5
      thresh= 4.786E-08 alpha_mix =  0.500 |ddv_scf|^2 =  3.424E-13

      iter #  10 total cpu time :  1436.5 secs   av.it.:  19.2
      thresh= 5.852E-08 alpha_mix =  0.500 |ddv_scf|^2 =  3.156E-14

      iter #  11 total cpu time :  1441.0 secs   av.it.:  20.0
      thresh= 1.776E-08 alpha_mix =  0.500 |ddv_scf|^2 =  1.467E-14

      iter #  12 total cpu time :  1445.5 secs   av.it.:  20.2
      thresh= 1.211E-08 alpha_mix =  0.500 |ddv_scf|^2 =  2.540E-15

     End of self-consistent calculation

     Convergence has been achieved 


     Representation #   2 mode #   2

     Self-consistent Calculation

      iter #   1 total cpu time :  1449.0 secs   av.it.:   9.5
      thresh= 1.000E-02 alpha_mix =  0.500 |ddv_scf|^2 =  3.741E-07

      iter #   2 total cpu time :  1453.7 secs   av.it.:  21.2
      thresh= 6.116E-05 alpha_mix =  0.500 |ddv_scf|^2 =  2.080E-06

      iter #   3 total cpu time :  1458.1 secs   av.it.:  19.0
      thresh= 1.442E-04 alpha_mix =  0.500 |ddv_scf|^2 =  8.987E-08

      iter #   4 total cpu time :  1462.3 secs   av.it.:  18.5
      thresh= 2.998E-05 alpha_mix =  0.500 |ddv_scf|^2 =  9.726E-09

      iter #   5 total cpu time :  1466.7 secs   av.it.:  19.5
      thresh= 9.862E-06 alpha_mix =  0.500 |ddv_scf|^2 =  3.104E-10

      iter #   6 total cpu time :  1471.2 secs   av.it.:  19.8
      thresh= 1.762E-06 alpha_mix =  0.500 |ddv_scf|^2 =  4.598E-11

      iter #   7 total cpu time :  1475.8 secs   av.it.:  20.0
      thresh= 6.781E-07 alpha_mix =  0.500 |ddv_scf|^2 =  6.437E-12

      iter #   8 total cpu time :  1480.3 secs   av.it.:  19.8
      thresh= 2.537E-07 alpha_mix =  0.500 |ddv_scf|^2 =  1.649E-12

      iter #   9 total cpu time :  1485.0 secs   av.it.:  20.5
      thresh= 1.284E-07 alpha_mix =  0.500 |ddv_scf|^2 =  3.908E-12

      iter #  10 total cpu time :  1489.3 secs   av.it.:  18.5
      thresh= 1.977E-07 alpha_mix =  0.500 |ddv_scf|^2 =  3.228E-14

      iter #  11 total cpu time :  1493.6 secs   av.it.:  19.5
      thresh= 1.797E-08 alpha_mix =  0.500 |ddv_scf|^2 =  8.362E-15

     End of self-consistent calculation

     Convergence has been achieved 


     Representation #   3 mode #   3

     Self-consistent Calculation

      iter #   1 total cpu time :  1497.1 secs   av.it.:   9.5
      thresh= 1.000E-02 alpha_mix =  0.500 |ddv_scf|^2 =  3.617E-07

      iter #   2 total cpu time :  1501.8 secs   av.it.:  20.8
      thresh= 6.014E-05 alpha_mix =  0.500 |ddv_scf|^2 =  4.510E-07

      iter #   3 total cpu time :  1506.4 secs   av.it.:  20.0
      thresh= 6.716E-05 alpha_mix =  0.500 |ddv_scf|^2 =  2.843E-07

      iter #   4 total cpu time :  1510.6 secs   av.it.:  18.5
      thresh= 5.332E-05 alpha_mix =  0.500 |ddv_scf|^2 =  2.524E-08

      iter #   5 total cpu time :  1515.0 secs   av.it.:  19.2
      thresh= 1.589E-05 alpha_mix =  0.500 |ddv_scf|^2 =  8.170E-10

      iter #   6 total cpu time :  1519.5 secs   av.it.:  19.8
      thresh= 2.858E-06 alpha_mix =  0.500 |ddv_scf|^2 =  1.652E-10

      iter #   7 total cpu time :  1523.9 secs   av.it.:  20.0
      thresh= 1.285E-06 alpha_mix =  0.500 |ddv_scf|^2 =  5.369E-12

      iter #   8 total cpu time :  1528.4 secs   av.it.:  19.8
      thresh= 2.317E-07 alpha_mix =  0.500 |ddv_scf|^2 =  1.281E-12

      iter #   9 total cpu time :  1533.0 secs   av.it.:  20.5
      thresh= 1.132E-07 alpha_mix =  0.500 |ddv_scf|^2 =  1.760E-12

      iter #  10 total cpu time :  1537.3 secs   av.it.:  19.0
      thresh= 1.326E-07 alpha_mix =  0.500 |ddv_scf|^2 =  9.517E-14

      iter #  11 total cpu time :  1541.6 secs   av.it.:  18.8
      thresh= 3.085E-08 alpha_mix =  0.500 |ddv_scf|^2 =  7.401E-15

     End of self-consistent calculation

     Convergence has been achieved 


     Representation #   4 mode #   4

     Self-consistent Calculation

      iter #   1 total cpu time :  1545.5 secs   av.it.:  11.8
      thresh= 1.000E-02 alpha_mix =  0.500 |ddv_scf|^2 =  3.157E-06

      iter #   2 total cpu time :  1550.1 secs   av.it.:  20.8
      thresh= 1.777E-04 alpha_mix =  0.500 |ddv_scf|^2 =  5.576E-06

      iter #   3 total cpu time :  1554.5 secs   av.it.:  19.5
      thresh= 2.361E-04 alpha_mix =  0.500 |ddv_scf|^2 =  6.336E-07

      iter #   4 total cpu time :  1558.8 secs   av.it.:  18.8
      thresh= 7.960E-05 alpha_mix =  0.500 |ddv_scf|^2 =  1.200E-07

      iter #   5 total cpu time :  1563.2 secs   av.it.:  19.2
      thresh= 3.465E-05 alpha_mix =  0.500 |ddv_scf|^2 =  2.179E-09

      iter #   6 total cpu time :  1567.8 secs   av.it.:  20.2
      thresh= 4.668E-06 alpha_mix =  0.500 |ddv_scf|^2 =  5.113E-10

      iter #   7 total cpu time :  1572.3 secs   av.it.:  20.2
      thresh= 2.261E-06 alpha_mix =  0.500 |ddv_scf|^2 =  1.962E-11

      iter #   8 total cpu time :  1577.0 secs   av.it.:  20.5
      thresh= 4.430E-07 alpha_mix =  0.500 |ddv_scf|^2 =  8.042E-13

      iter #   9 total cpu time :  1581.5 secs   av.it.:  20.0
      thresh= 8.968E-08 alpha_mix =  0.500 |ddv_scf|^2 =  1.254E-13

      iter #  10 total cpu time :  1586.1 secs   av.it.:  20.5
      thresh= 3.542E-08 alpha_mix =  0.500 |ddv_scf|^2 =  2.390E-13

      iter #  11 total cpu time :  1590.4 secs   av.it.:  18.8
      thresh= 4.889E-08 alpha_mix =  0.500 |ddv_scf|^2 =  3.051E-15

     End of self-consistent calculation

     Convergence has been achieved 


     Representation #   5 mode #   5

     Self-consistent Calculation

      iter #   1 total cpu time :  1593.8 secs   av.it.:   9.5
      thresh= 1.000E-02 alpha_mix =  0.500 |ddv_scf|^2 =  3.929E-07

      iter #   2 total cpu time :  1598.4 secs   av.it.:  20.5
      thresh= 6.268E-05 alpha_mix =  0.500 |ddv_scf|^2 =  4.746E-07

      iter #   3 total cpu time :  1602.8 secs   av.it.:  19.8
      thresh= 6.889E-05 alpha_mix =  0.500 |ddv_scf|^2 =  1.532E-07

      iter #   4 total cpu time :  1607.2 secs   av.it.:  18.8
      thresh= 3.914E-05 alpha_mix =  0.500 |ddv_scf|^2 =  2.980E-08

      iter #   5 total cpu time :  1611.6 secs   av.it.:  19.5
      thresh= 1.726E-05 alpha_mix =  0.500 |ddv_scf|^2 =  9.467E-10

      iter #   6 total cpu time :  1616.0 secs   av.it.:  19.8
      thresh= 3.077E-06 alpha_mix =  0.500 |ddv_scf|^2 =  1.934E-10

      iter #   7 total cpu time :  1620.5 secs   av.it.:  20.0
      thresh= 1.391E-06 alpha_mix =  0.500 |ddv_scf|^2 =  3.416E-12

      iter #   8 total cpu time :  1625.1 secs   av.it.:  20.0
      thresh= 1.848E-07 alpha_mix =  0.500 |ddv_scf|^2 =  9.285E-13

      iter #   9 total cpu time :  1629.6 secs   av.it.:  20.0
      thresh= 9.636E-08 alpha_mix =  0.500 |ddv_scf|^2 =  1.422E-13

      iter #  10 total cpu time :  1634.0 secs   av.it.:  20.0
      thresh= 3.771E-08 alpha_mix =  0.500 |ddv_scf|^2 =  2.162E-13

      iter #  11 total cpu time :  1638.3 secs   av.it.:  18.8
      thresh= 4.650E-08 alpha_mix =  0.500 |ddv_scf|^2 =  1.374E-14

      iter #  12 total cpu time :  1642.8 secs   av.it.:  19.8
      thresh= 1.172E-08 alpha_mix =  0.500 |ddv_scf|^2 =  6.251E-15

     End of self-consistent calculation

     Convergence has been achieved 


     Representation #   6 mode #   6

     Self-consistent Calculation

      iter #   1 total cpu time :  1646.6 secs   av.it.:  11.5
      thresh= 1.000E-02 alpha_mix =  0.500 |ddv_scf|^2 =  1.410E-06

      iter #   2 total cpu time :  1651.3 secs   av.it.:  20.8
      thresh= 1.187E-04 alpha_mix =  0.500 |ddv_scf|^2 =  5.000E-06

      iter #   3 total cpu time :  1655.6 secs   av.it.:  18.5
      thresh= 2.236E-04 alpha_mix =  0.500 |ddv_scf|^2 =  4.683E-07

      iter #   4 total cpu time :  1660.1 secs   av.it.:  19.5
      thresh= 6.843E-05 alpha_mix =  0.500 |ddv_scf|^2 =  6.802E-08

      iter #   5 total cpu time :  1664.4 secs   av.it.:  19.5
      thresh= 2.608E-05 alpha_mix =  0.500 |ddv_scf|^2 =  1.872E-09

      iter #   6 total cpu time :  1668.9 secs   av.it.:  19.5
      thresh= 4.327E-06 alpha_mix =  0.500 |ddv_scf|^2 =  4.633E-10

      iter #   7 total cpu time :  1673.4 secs   av.it.:  19.8
      thresh= 2.152E-06 alpha_mix =  0.500 |ddv_scf|^2 =  2.148E-11

      iter #   8 total cpu time :  1677.9 secs   av.it.:  19.5
      thresh= 4.635E-07 alpha_mix =  0.500 |ddv_scf|^2 =  7.176E-13

      iter #   9 total cpu time :  1682.1 secs   av.it.:  18.8
      thresh= 8.471E-08 alpha_mix =  0.500 |ddv_scf|^2 =  1.401E-13

      iter #  10 total cpu time :  1686.6 secs   av.it.:  19.8
      thresh= 3.743E-08 alpha_mix =  0.500 |ddv_scf|^2 =  2.493E-14

      iter #  11 total cpu time :  1691.0 secs   av.it.:  19.5
      thresh= 1.579E-08 alpha_mix =  0.500 |ddv_scf|^2 =  3.946E-15

     End of self-consistent calculation

     Convergence has been achieved 


     Representation #   7 mode #   7

     Self-consistent Calculation

      iter #   1 total cpu time :  1694.3 secs   av.it.:   8.5
      thresh= 1.000E-02 alpha_mix =  0.500 |ddv_scf|^2 =  1.131E-07

      iter #   2 total cpu time :  1699.5 secs   av.it.:  20.5
      thresh= 3.363E-05 alpha_mix =  0.500 |ddv_scf|^2 =  1.062E-07

      iter #   3 total cpu time :  1704.3 secs   av.it.:  20.2
      thresh= 3.259E-05 alpha_mix =  0.500 |ddv_scf|^2 =  1.566E-07

      iter #   4 total cpu time :  1708.5 secs   av.it.:  18.5
      thresh= 3.957E-05 alpha_mix =  0.500 |ddv_scf|^2 =  6.421E-09

      iter #   5 total cpu time :  1713.0 secs   av.it.:  19.8
      thresh= 8.013E-06 alpha_mix =  0.500 |ddv_scf|^2 =  1.500E-10

      iter #   6 total cpu time :  1717.6 secs   av.it.:  20.0
      thresh= 1.225E-06 alpha_mix =  0.500 |ddv_scf|^2 =  8.362E-11

      iter #   7 total cpu time :  1722.0 secs   av.it.:  19.8
      thresh= 9.145E-07 alpha_mix =  0.500 |ddv_scf|^2 =  8.579E-12

      iter #   8 total cpu time :  1726.4 secs   av.it.:  19.5
      thresh= 2.929E-07 alpha_mix =  0.500 |ddv_scf|^2 =  4.748E-13

      iter #   9 total cpu time :  1730.9 secs   av.it.:  19.8
      thresh= 6.890E-08 alpha_mix =  0.500 |ddv_scf|^2 =  5.431E-14

      iter #  10 total cpu time :  1735.4 secs   av.it.:  20.0
      thresh= 2.330E-08 alpha_mix =  0.500 |ddv_scf|^2 =  1.940E-14

      iter #  11 total cpu time :  1739.8 secs   av.it.:  19.5
      thresh= 1.393E-08 alpha_mix =  0.500 |ddv_scf|^2 =  1.523E-15

     End of self-consistent calculation

     Convergence has been achieved 


     Representation #   8 mode #   8

     Self-consistent Calculation

      iter #   1 total cpu time :  1743.2 secs   av.it.:   9.0
      thresh= 1.000E-02 alpha_mix =  0.500 |ddv_scf|^2 =  1.066E-07

      iter #   2 total cpu time :  1747.5 secs   av.it.:  19.2
      thresh= 3.264E-05 alpha_mix =  0.500 |ddv_scf|^2 =  1.195E-09

      iter #   3 total cpu time :  1752.1 secs   av.it.:  20.0
      thresh= 3.457E-06 alpha_mix =  0.500 |ddv_scf|^2 =  7.691E-11

      iter #   4 total cpu time :  1756.6 secs   av.it.:  19.8
      thresh= 8.770E-07 alpha_mix =  0.500 |ddv_scf|^2 =  5.592E-12

      iter #   5 total cpu time :  1761.1 secs   av.it.:  20.0
      thresh= 2.365E-07 alpha_mix =  0.500 |ddv_scf|^2 =  5.295E-14

      iter #   6 total cpu time :  1765.7 secs   av.it.:  20.5
      thresh= 2.301E-08 alpha_mix =  0.500 |ddv_scf|^2 =  2.170E-15

     End of self-consistent calculation

     Convergence has been achieved 


     Representation #   9 mode #   9

     Self-consistent Calculation

      iter #   1 total cpu time :  1768.9 secs   av.it.:   7.8
      thresh= 1.000E-02 alpha_mix =  0.500 |ddv_scf|^2 =  5.769E-08

      iter #   2 total cpu time :  1773.1 secs   av.it.:  18.8
      thresh= 2.402E-05 alpha_mix =  0.500 |ddv_scf|^2 =  2.253E-09

      iter #   3 total cpu time :  1777.6 secs   av.it.:  19.2
      thresh= 4.747E-06 alpha_mix =  0.500 |ddv_scf|^2 =  4.611E-11

      iter #   4 total cpu time :  1781.9 secs   av.it.:  18.5
      thresh= 6.790E-07 alpha_mix =  0.500 |ddv_scf|^2 =  5.979E-12

      iter #   5 total cpu time :  1786.2 secs   av.it.:  19.2
      thresh= 2.445E-07 alpha_mix =  0.500 |ddv_scf|^2 =  9.530E-14

      iter #   6 total cpu time :  1790.6 secs   av.it.:  19.5
      thresh= 3.087E-08 alpha_mix =  0.500 |ddv_scf|^2 =  2.179E-15

     End of self-consistent calculation

     Convergence has been achieved 


     Representation #  10 mode #  10

     Self-consistent Calculation

      iter #   1 total cpu time :  1794.3 secs   av.it.:  10.5
      thresh= 1.000E-02 alpha_mix =  0.500 |ddv_scf|^2 =  3.997E-07

      iter #   2 total cpu time :  1798.7 secs   av.it.:  19.2
      thresh= 6.322E-05 alpha_mix =  0.500 |ddv_scf|^2 =  1.754E-09

      iter #   3 total cpu time :  1803.2 secs   av.it.:  20.0
      thresh= 4.188E-06 alpha_mix =  0.500 |ddv_scf|^2 =  2.322E-10

      iter #   4 total cpu time :  1807.9 secs   av.it.:  20.0
      thresh= 1.524E-06 alpha_mix =  0.500 |ddv_scf|^2 =  5.760E-12

      iter #   5 total cpu time :  1812.5 secs   av.it.:  20.5
      thresh= 2.400E-07 alpha_mix =  0.500 |ddv_scf|^2 =  2.701E-13

      iter #   6 total cpu time :  1817.2 secs   av.it.:  20.2
      thresh= 5.197E-08 alpha_mix =  0.500 |ddv_scf|^2 =  1.240E-14

      iter #   7 total cpu time :  1821.3 secs   av.it.:  17.5
      thresh= 1.114E-08 alpha_mix =  0.500 |ddv_scf|^2 =  2.325E-15

     End of self-consistent calculation

     Convergence has been achieved 


     Representation #  11 mode #  11

     Self-consistent Calculation

      iter #   1 total cpu time :  1824.7 secs   av.it.:   8.5
      thresh= 1.000E-02 alpha_mix =  0.500 |ddv_scf|^2 =  6.391E-08

      iter #   2 total cpu time :  1829.0 secs   av.it.:  19.0
      thresh= 2.528E-05 alpha_mix =  0.500 |ddv_scf|^2 =  2.509E-09

      iter #   3 total cpu time :  1833.4 secs   av.it.:  19.5
      thresh= 5.009E-06 alpha_mix =  0.500 |ddv_scf|^2 =  7.192E-11

      iter #   4 total cpu time :  1837.7 secs   av.it.:  18.5
      thresh= 8.481E-07 alpha_mix =  0.500 |ddv_scf|^2 =  8.800E-12

      iter #   5 total cpu time :  1842.1 secs   av.it.:  19.2
      thresh= 2.966E-07 alpha_mix =  0.500 |ddv_scf|^2 =  1.503E-13

      iter #   6 total cpu time :  1846.6 secs   av.it.:  19.2
      thresh= 3.877E-08 alpha_mix =  0.500 |ddv_scf|^2 =  3.368E-15

     End of self-consistent calculation

     Convergence has been achieved 


     Representation #  12 mode #  12

     Self-consistent Calculation

      iter #   1 total cpu time :  1850.0 secs   av.it.:   9.0
      thresh= 1.000E-02 alpha_mix =  0.500 |ddv_scf|^2 =  1.760E-07

      iter #   2 total cpu time :  1854.5 secs   av.it.:  19.8
      thresh= 4.195E-05 alpha_mix =  0.500 |ddv_scf|^2 =  3.877E-07

      iter #   3 total cpu time :  1858.8 secs   av.it.:  17.2
      thresh= 6.226E-05 alpha_mix =  0.500 |ddv_scf|^2 =  1.775E-08

      iter #   4 total cpu time :  1863.4 secs   av.it.:  19.8
      thresh= 1.332E-05 alpha_mix =  0.500 |ddv_scf|^2 =  2.201E-08

      iter #   5 total cpu time :  1867.7 secs   av.it.:  18.8
      thresh= 1.484E-05 alpha_mix =  0.500 |ddv_scf|^2 =  2.900E-10

      iter #   6 total cpu time :  1872.1 secs   av.it.:  19.5
      thresh= 1.703E-06 alpha_mix =  0.500 |ddv_scf|^2 =  7.815E-11

      iter #   7 total cpu time :  1876.6 secs   av.it.:  19.8
      thresh= 8.840E-07 alpha_mix =  0.500 |ddv_scf|^2 =  2.734E-12

      iter #   8 total cpu time :  1881.1 secs   av.it.:  19.8
      thresh= 1.654E-07 alpha_mix =  0.500 |ddv_scf|^2 =  5.762E-13

      iter #   9 total cpu time :  1885.6 secs   av.it.:  20.2
      thresh= 7.591E-08 alpha_mix =  0.500 |ddv_scf|^2 =  1.888E-14

      iter #  10 total cpu time :  1890.1 secs   av.it.:  19.5
      thresh= 1.374E-08 alpha_mix =  0.500 |ddv_scf|^2 =  8.928E-15

     End of self-consistent calculation

     Convergence has been achieved 


     Representation #  13 mode #  13

     Self-consistent Calculation

      iter #   1 total cpu time :  1893.7 secs   av.it.:   9.8
      thresh= 1.000E-02 alpha_mix =  0.500 |ddv_scf|^2 =  2.145E-06

      iter #   2 total cpu time :  1898.5 secs   av.it.:  18.8
      thresh= 1.465E-04 alpha_mix =  0.500 |ddv_scf|^2 =  5.781E-06

      iter #   3 total cpu time :  1902.5 secs   av.it.:  16.5
      thresh= 2.404E-04 alpha_mix =  0.500 |ddv_scf|^2 =  6.795E-08

      iter #   4 total cpu time :  1906.8 secs   av.it.:  19.0
      thresh= 2.607E-05 alpha_mix =  0.500 |ddv_scf|^2 =  5.997E-08

      iter #   5 total cpu time :  1911.1 secs   av.it.:  18.5
      thresh= 2.449E-05 alpha_mix =  0.500 |ddv_scf|^2 =  1.220E-09

      iter #   6 total cpu time :  1915.4 secs   av.it.:  18.5
      thresh= 3.493E-06 alpha_mix =  0.500 |ddv_scf|^2 =  6.695E-11

      iter #   7 total cpu time :  1919.9 secs   av.it.:  20.0
      thresh= 8.182E-07 alpha_mix =  0.500 |ddv_scf|^2 =  7.571E-12

      iter #   8 total cpu time :  1924.4 secs   av.it.:  19.2
      thresh= 2.751E-07 alpha_mix =  0.500 |ddv_scf|^2 =  1.078E-12

      iter #   9 total cpu time :  1928.8 secs   av.it.:  19.8
      thresh= 1.038E-07 alpha_mix =  0.500 |ddv_scf|^2 =  1.211E-13

      iter #  10 total cpu time :  1933.2 secs   av.it.:  18.2
      thresh= 3.480E-08 alpha_mix =  0.500 |ddv_scf|^2 =  2.016E-14

      iter #  11 total cpu time :  1937.5 secs   av.it.:  19.0
      thresh= 1.420E-08 alpha_mix =  0.500 |ddv_scf|^2 =  6.261E-15

     End of self-consistent calculation

     Convergence has been achieved 


     Representation #  14 mode #  14

     Self-consistent Calculation

      iter #   1 total cpu time :  1941.4 secs   av.it.:  11.5
      thresh= 1.000E-02 alpha_mix =  0.500 |ddv_scf|^2 =  9.945E-06

      iter #   2 total cpu time :  1945.8 secs   av.it.:  19.5
      thresh= 3.154E-04 alpha_mix =  0.500 |ddv_scf|^2 =  3.817E-05

      iter #   3 total cpu time :  1949.7 secs   av.it.:  16.8
      thresh= 6.178E-04 alpha_mix =  0.500 |ddv_scf|^2 =  6.268E-07

      iter #   4 total cpu time :  1954.1 secs   av.it.:  19.2
      thresh= 7.917E-05 alpha_mix =  0.500 |ddv_scf|^2 =  2.726E-07

      iter #   5 total cpu time :  1958.4 secs   av.it.:  18.5
      thresh= 5.221E-05 alpha_mix =  0.500 |ddv_scf|^2 =  8.792E-10

      iter #   6 total cpu time :  1963.0 secs   av.it.:  20.5
      thresh= 2.965E-06 alpha_mix =  0.500 |ddv_scf|^2 =  3.324E-10

      iter #   7 total cpu time :  1967.6 secs   av.it.:  20.5
      thresh= 1.823E-06 alpha_mix =  0.500 |ddv_scf|^2 =  3.529E-11

      iter #   8 total cpu time :  1972.1 secs   av.it.:  19.8
      thresh= 5.941E-07 alpha_mix =  0.500 |ddv_scf|^2 =  3.117E-12

      iter #   9 total cpu time :  1976.4 secs   av.it.:  19.0
      thresh= 1.765E-07 alpha_mix =  0.500 |ddv_scf|^2 =  6.161E-14

      iter #  10 total cpu time :  1981.1 secs   av.it.:  21.2
      thresh= 2.482E-08 alpha_mix =  0.500 |ddv_scf|^2 =  2.535E-13

      iter #  11 total cpu time :  1985.4 secs   av.it.:  19.0
      thresh= 5.035E-08 alpha_mix =  0.500 |ddv_scf|^2 =  3.062E-14

      iter #  12 total cpu time :  1989.8 secs   av.it.:  19.5
      thresh= 1.750E-08 alpha_mix =  0.500 |ddv_scf|^2 =  3.967E-16

     End of self-consistent calculation

     Convergence has been achieved 


     Representation #  15 mode #  15

     Self-consistent Calculation

      iter #   1 total cpu time :  1993.4 secs   av.it.:   9.8
      thresh= 1.000E-02 alpha_mix =  0.500 |ddv_scf|^2 =  9.354E-07

      iter #   2 total cpu time :  1998.0 secs   av.it.:  20.5
      thresh= 9.672E-05 alpha_mix =  0.500 |ddv_scf|^2 =  9.352E-06

      iter #   3 total cpu time :  2002.1 secs   av.it.:  17.2
      thresh= 3.058E-04 alpha_mix =  0.500 |ddv_scf|^2 =  9.931E-09

      iter #   4 total cpu time :  2006.7 secs   av.it.:  20.2
      thresh= 9.966E-06 alpha_mix =  0.500 |ddv_scf|^2 =  2.235E-08

      iter #   5 total cpu time :  2011.0 secs   av.it.:  18.8
      thresh= 1.495E-05 alpha_mix =  0.500 |ddv_scf|^2 =  5.655E-10

      iter #   6 total cpu time :  2015.4 secs   av.it.:  19.8
      thresh= 2.378E-06 alpha_mix =  0.500 |ddv_scf|^2 =  1.242E-10

      iter #   7 total cpu time :  2019.9 secs   av.it.:  20.0
      thresh= 1.114E-06 alpha_mix =  0.500 |ddv_scf|^2 =  3.023E-12

      iter #   8 total cpu time :  2024.5 secs   av.it.:  19.5
      thresh= 1.739E-07 alpha_mix =  0.500 |ddv_scf|^2 =  1.590E-12

      iter #   9 total cpu time :  2028.9 secs   av.it.:  19.5
      thresh= 1.261E-07 alpha_mix =  0.500 |ddv_scf|^2 =  1.560E-13

      iter #  10 total cpu time :  2033.3 secs   av.it.:  19.0
      thresh= 3.949E-08 alpha_mix =  0.500 |ddv_scf|^2 =  1.651E-14

      iter #  11 total cpu time :  2037.8 secs   av.it.:  20.0
      thresh= 1.285E-08 alpha_mix =  0.500 |ddv_scf|^2 =  1.407E-14

      iter #  12 total cpu time :  2042.1 secs   av.it.:  18.5
      thresh= 1.186E-08 alpha_mix =  0.500 |ddv_scf|^2 =  1.569E-15

     End of self-consistent calculation

     Convergence has been achieved 


     Representation #  16 mode #  16

     Self-consistent Calculation

      iter #   1 total cpu time :  2045.5 secs   av.it.:   9.8
      thresh= 1.000E-02 alpha_mix =  0.500 |ddv_scf|^2 =  1.643E-06

      iter #   2 total cpu time :  2050.0 secs   av.it.:  19.5
      thresh= 1.282E-04 alpha_mix =  0.500 |ddv_scf|^2 =  7.734E-06

      iter #   3 total cpu time :  2054.0 secs   av.it.:  16.8
      thresh= 2.781E-04 alpha_mix =  0.500 |ddv_scf|^2 =  1.537E-07

      iter #   4 total cpu time :  2058.4 secs   av.it.:  19.5
      thresh= 3.921E-05 alpha_mix =  0.500 |ddv_scf|^2 =  5.662E-08

      iter #   5 total cpu time :  2062.7 secs   av.it.:  19.0
      thresh= 2.379E-05 alpha_mix =  0.500 |ddv_scf|^2 =  5.922E-10

      iter #   6 total cpu time :  2067.2 secs   av.it.:  18.5
      thresh= 2.433E-06 alpha_mix =  0.500 |ddv_scf|^2 =  1.524E-11

      iter #   7 total cpu time :  2071.8 secs   av.it.:  20.5
      thresh= 3.903E-07 alpha_mix =  0.500 |ddv_scf|^2 =  5.902E-12

      iter #   8 total cpu time :  2076.4 secs   av.it.:  20.2
      thresh= 2.429E-07 alpha_mix =  0.500 |ddv_scf|^2 =  5.622E-13

      iter #   9 total cpu time :  2081.0 secs   av.it.:  20.5
      thresh= 7.498E-08 alpha_mix =  0.500 |ddv_scf|^2 =  6.555E-14

      iter #  10 total cpu time :  2085.4 secs   av.it.:  19.5
      thresh= 2.560E-08 alpha_mix =  0.500 |ddv_scf|^2 =  7.714E-14

      iter #  11 total cpu time :  2089.8 secs   av.it.:  19.0
      thresh= 2.777E-08 alpha_mix =  0.500 |ddv_scf|^2 =  1.810E-14

      iter #  12 total cpu time :  2094.0 secs   av.it.:  18.5
      thresh= 1.345E-08 alpha_mix =  0.500 |ddv_scf|^2 =  5.740E-16

     End of self-consistent calculation

     Convergence has been achieved 


     Representation #  17 mode #  17

     Self-consistent Calculation

      iter #   1 total cpu time :  2097.6 secs   av.it.:  10.0
      thresh= 1.000E-02 alpha_mix =  0.500 |ddv_scf|^2 =  7.525E-06

      iter #   2 total cpu time :  2101.9 secs   av.it.:  19.2
      thresh= 2.743E-04 alpha_mix =  0.500 |ddv_scf|^2 =  4.525E-05

      iter #   3 total cpu time :  2105.9 secs   av.it.:  17.0
      thresh= 6.727E-04 alpha_mix =  0.500 |ddv_scf|^2 =  5.956E-07

      iter #   4 total cpu time :  2110.2 secs   av.it.:  18.5
      thresh= 7.718E-05 alpha_mix =  0.500 |ddv_scf|^2 =  7.107E-09

      iter #   5 total cpu time :  2114.8 secs   av.it.:  19.8
      thresh= 8.430E-06 alpha_mix =  0.500 |ddv_scf|^2 =  8.786E-10

      iter #   6 total cpu time :  2119.4 secs   av.it.:  20.0
      thresh= 2.964E-06 alpha_mix =  0.500 |ddv_scf|^2 =  3.744E-10

      iter #   7 total cpu time :  2123.7 secs   av.it.:  18.8
      thresh= 1.935E-06 alpha_mix =  0.500 |ddv_scf|^2 =  1.702E-11

      iter #   8 total cpu time :  2128.1 secs   av.it.:  18.2
      thresh= 4.126E-07 alpha_mix =  0.500 |ddv_scf|^2 =  6.272E-13

      iter #   9 total cpu time :  2132.4 secs   av.it.:  19.5
      thresh= 7.920E-08 alpha_mix =  0.500 |ddv_scf|^2 =  1.374E-13

      iter #  10 total cpu time :  2136.8 secs   av.it.:  19.2
      thresh= 3.706E-08 alpha_mix =  0.500 |ddv_scf|^2 =  2.981E-15

     End of self-consistent calculation

     Convergence has been achieved 


     Representation #  18 mode #  18

     Self-consistent Calculation

      iter #   1 total cpu time :  2140.9 secs   av.it.:  11.5
      thresh= 1.000E-02 alpha_mix =  0.500 |ddv_scf|^2 =  2.315E-06

      iter #   2 total cpu time :  2145.5 secs   av.it.:  20.8
      thresh= 1.521E-04 alpha_mix =  0.500 |ddv_scf|^2 =  1.635E-05

      iter #   3 total cpu time :  2149.6 secs   av.it.:  17.5
      thresh= 4.044E-04 alpha_mix =  0.500 |ddv_scf|^2 =  4.285E-07

      iter #   4 total cpu time :  2154.0 secs   av.it.:  19.0
      thresh= 6.546E-05 alpha_mix =  0.500 |ddv_scf|^2 =  3.785E-08

      iter #   5 total cpu time :  2158.4 secs   av.it.:  19.8
      thresh= 1.946E-05 alpha_mix =  0.500 |ddv_scf|^2 =  6.846E-10

      iter #   6 total cpu time :  2162.9 secs   av.it.:  19.8
      thresh= 2.617E-06 alpha_mix =  0.500 |ddv_scf|^2 =  7.402E-10

      iter #   7 total cpu time :  2167.3 secs   av.it.:  19.5
      thresh= 2.721E-06 alpha_mix =  0.500 |ddv_scf|^2 =  2.744E-11

      iter #   8 total cpu time :  2171.8 secs   av.it.:  19.2
      thresh= 5.239E-07 alpha_mix =  0.500 |ddv_scf|^2 =  1.731E-12

      iter #   9 total cpu time :  2176.2 secs   av.it.:  18.5
      thresh= 1.316E-07 alpha_mix =  0.500 |ddv_scf|^2 =  1.512E-13

      iter #  10 total cpu time :  2180.7 secs   av.it.:  19.5
      thresh= 3.888E-08 alpha_mix =  0.500 |ddv_scf|^2 =  9.202E-15

     End of self-consistent calculation

     Convergence has been achieved 


     Representation #  19 mode #  19

     Self-consistent Calculation

      iter #   1 total cpu time :  2184.1 secs   av.it.:   9.2
      thresh= 1.000E-02 alpha_mix =  0.500 |ddv_scf|^2 =  1.038E-07

      iter #   2 total cpu time :  2188.5 secs   av.it.:  19.2
      thresh= 3.222E-05 alpha_mix =  0.500 |ddv_scf|^2 =  1.167E-09

      iter #   3 total cpu time :  2193.1 secs   av.it.:  20.2
      thresh= 3.416E-06 alpha_mix =  0.500 |ddv_scf|^2 =  7.002E-11

      iter #   4 total cpu time :  2197.6 secs   av.it.:  20.0
      thresh= 8.368E-07 alpha_mix =  0.500 |ddv_scf|^2 =  5.253E-12

      iter #   5 total cpu time :  2202.2 secs   av.it.:  20.2
      thresh= 2.292E-07 alpha_mix =  0.500 |ddv_scf|^2 =  4.903E-14

      iter #   6 total cpu time :  2206.9 secs   av.it.:  20.5
      thresh= 2.214E-08 alpha_mix =  0.500 |ddv_scf|^2 =  2.048E-15

     End of self-consistent calculation

     Convergence has been achieved 


     Representation #  20 mode #  20

     Self-consistent Calculation

      iter #   1 total cpu time :  2210.2 secs   av.it.:   8.8
      thresh= 1.000E-02 alpha_mix =  0.500 |ddv_scf|^2 =  5.943E-08

      iter #   2 total cpu time :  2214.5 secs   av.it.:  19.2
      thresh= 2.438E-05 alpha_mix =  0.500 |ddv_scf|^2 =  2.508E-09

      iter #   3 total cpu time :  2219.0 secs   av.it.:  19.5
      thresh= 5.008E-06 alpha_mix =  0.500 |ddv_scf|^2 =  7.179E-11

      iter #   4 total cpu time :  2223.3 secs   av.it.:  18.0
      thresh= 8.473E-07 alpha_mix =  0.500 |ddv_scf|^2 =  8.679E-12

      iter #   5 total cpu time :  2227.7 secs   av.it.:  19.2
      thresh= 2.946E-07 alpha_mix =  0.500 |ddv_scf|^2 =  1.384E-13

      iter #   6 total cpu time :  2232.1 secs   av.it.:  19.2
      thresh= 3.720E-08 alpha_mix =  0.500 |ddv_scf|^2 =  2.323E-15

     End of self-consistent calculation

     Convergence has been achieved 


     Representation #  21 mode #  21

     Self-consistent Calculation

      iter #   1 total cpu time :  2235.8 secs   av.it.:  10.5
      thresh= 1.000E-02 alpha_mix =  0.500 |ddv_scf|^2 =  3.739E-07

      iter #   2 total cpu time :  2240.2 secs   av.it.:  19.5
      thresh= 6.115E-05 alpha_mix =  0.500 |ddv_scf|^2 =  1.434E-09

      iter #   3 total cpu time :  2244.8 secs   av.it.:  20.0
      thresh= 3.787E-06 alpha_mix =  0.500 |ddv_scf|^2 =  2.170E-10

      iter #   4 total cpu time :  2249.3 secs   av.it.:  20.0
      thresh= 1.473E-06 alpha_mix =  0.500 |ddv_scf|^2 =  5.581E-12

      iter #   5 total cpu time :  2254.0 secs   av.it.:  20.2
      thresh= 2.362E-07 alpha_mix =  0.500 |ddv_scf|^2 =  2.540E-13

      iter #   6 total cpu time :  2258.6 secs   av.it.:  20.5
      thresh= 5.040E-08 alpha_mix =  0.500 |ddv_scf|^2 =  8.730E-15

     End of self-consistent calculation

     Convergence has been achieved 


     Representation #  22 mode #  22

     Self-consistent Calculation

      iter #   1 total cpu time :  2261.9 secs   av.it.:   8.8
      thresh= 1.000E-02 alpha_mix =  0.500 |ddv_scf|^2 =  4.758E-08

      iter #   2 total cpu time :  2266.3 secs   av.it.:  19.2
      thresh= 2.181E-05 alpha_mix =  0.500 |ddv_scf|^2 =  2.480E-09

      iter #   3 total cpu time :  2270.7 secs   av.it.:  19.5
      thresh= 4.980E-06 alpha_mix =  0.500 |ddv_scf|^2 =  7.253E-11

      iter #   4 total cpu time :  2275.0 secs   av.it.:  18.8
      thresh= 8.517E-07 alpha_mix =  0.500 |ddv_scf|^2 =  5.986E-12

      iter #   5 total cpu time :  2279.5 secs   av.it.:  19.2
      thresh= 2.447E-07 alpha_mix =  0.500 |ddv_scf|^2 =  1.250E-13

      iter #   6 total cpu time :  2283.9 secs   av.it.:  19.2
      thresh= 3.536E-08 alpha_mix =  0.500 |ddv_scf|^2 =  1.763E-15

     End of self-consistent calculation

     Convergence has been achieved 


     Representation #  23 mode #  23

     Self-consistent Calculation

      iter #   1 total cpu time :  2287.2 secs   av.it.:   8.5
      thresh= 1.000E-02 alpha_mix =  0.500 |ddv_scf|^2 =  4.718E-08

      iter #   2 total cpu time :  2291.7 secs   av.it.:  19.2
      thresh= 2.172E-05 alpha_mix =  0.500 |ddv_scf|^2 =  1.464E-09

      iter #   3 total cpu time :  2296.2 secs   av.it.:  20.0
      thresh= 3.827E-06 alpha_mix =  0.500 |ddv_scf|^2 =  5.484E-11

      iter #   4 total cpu time :  2300.7 secs   av.it.:  20.0
      thresh= 7.405E-07 alpha_mix =  0.500 |ddv_scf|^2 =  3.793E-12

      iter #   5 total cpu time :  2305.3 secs   av.it.:  20.0
      thresh= 1.948E-07 alpha_mix =  0.500 |ddv_scf|^2 =  2.655E-14

      iter #   6 total cpu time :  2309.9 secs   av.it.:  20.5
      thresh= 1.629E-08 alpha_mix =  0.500 |ddv_scf|^2 =  8.140E-16

     End of self-consistent calculation

     Convergence has been achieved 


     Representation #  24 mode #  24

     Self-consistent Calculation

      iter #   1 total cpu time :  2313.5 secs   av.it.:  10.5
      thresh= 1.000E-02 alpha_mix =  0.500 |ddv_scf|^2 =  2.860E-07

      iter #   2 total cpu time :  2318.0 secs   av.it.:  19.5
      thresh= 5.348E-05 alpha_mix =  0.500 |ddv_scf|^2 =  1.092E-09

      iter #   3 total cpu time :  2322.5 secs   av.it.:  19.5
      thresh= 3.305E-06 alpha_mix =  0.500 |ddv_scf|^2 =  1.721E-10

      iter #   4 total cpu time :  2327.2 secs   av.it.:  20.5
      thresh= 1.312E-06 alpha_mix =  0.500 |ddv_scf|^2 =  3.439E-12

      iter #   5 total cpu time :  2331.7 secs   av.it.:  20.2
      thresh= 1.854E-07 alpha_mix =  0.500 |ddv_scf|^2 =  8.581E-14

      iter #   6 total cpu time :  2336.3 secs   av.it.:  20.0
      thresh= 2.929E-08 alpha_mix =  0.500 |ddv_scf|^2 =  5.847E-15

     End of self-consistent calculation

     Convergence has been achieved 


     Representation #  25 mode #  25

     Self-consistent Calculation

      iter #   1 total cpu time :  2339.8 secs   av.it.:   9.2
      thresh= 1.000E-02 alpha_mix =  0.500 |ddv_scf|^2 =  1.947E-07

      iter #   2 total cpu time :  2344.6 secs   av.it.:  20.8
      thresh= 4.412E-05 alpha_mix =  0.500 |ddv_scf|^2 =  3.102E-07

      iter #   3 total cpu time :  2349.1 secs   av.it.:  19.8
      thresh= 5.569E-05 alpha_mix =  0.500 |ddv_scf|^2 =  1.520E-07

      iter #   4 total cpu time :  2353.5 secs   av.it.:  19.0
      thresh= 3.898E-05 alpha_mix =  0.500 |ddv_scf|^2 =  6.606E-09

      iter #   5 total cpu time :  2357.8 secs   av.it.:  19.2
      thresh= 8.128E-06 alpha_mix =  0.500 |ddv_scf|^2 =  7.239E-11

      iter #   6 total cpu time :  2362.4 secs   av.it.:  20.5
      thresh= 8.508E-07 alpha_mix =  0.500 |ddv_scf|^2 =  4.853E-11

      iter #   7 total cpu time :  2367.0 secs   av.it.:  20.0
      thresh= 6.966E-07 alpha_mix =  0.500 |ddv_scf|^2 =  5.385E-12

      iter #   8 total cpu time :  2371.5 secs   av.it.:  19.5
      thresh= 2.321E-07 alpha_mix =  0.500 |ddv_scf|^2 =  2.123E-13

      iter #   9 total cpu time :  2376.0 secs   av.it.:  19.8
      thresh= 4.608E-08 alpha_mix =  0.500 |ddv_scf|^2 =  8.292E-15

     End of self-consistent calculation

     Convergence has been achieved 


     Representation #  26 mode #  26

     Self-consistent Calculation

      iter #   1 total cpu time :  2379.8 secs   av.it.:  11.0
      thresh= 1.000E-02 alpha_mix =  0.500 |ddv_scf|^2 =  5.768E-07

      iter #   2 total cpu time :  2384.5 secs   av.it.:  21.0
      thresh= 7.595E-05 alpha_mix =  0.500 |ddv_scf|^2 =  6.537E-07

      iter #   3 total cpu time :  2388.9 secs   av.it.:  20.0
      thresh= 8.085E-05 alpha_mix =  0.500 |ddv_scf|^2 =  4.490E-07

      iter #   4 total cpu time :  2393.3 secs   av.it.:  18.8
      thresh= 6.701E-05 alpha_mix =  0.500 |ddv_scf|^2 =  1.851E-08

      iter #   5 total cpu time :  2397.8 secs   av.it.:  19.8
      thresh= 1.361E-05 alpha_mix =  0.500 |ddv_scf|^2 =  3.429E-10

      iter #   6 total cpu time :  2402.5 secs   av.it.:  21.0
      thresh= 1.852E-06 alpha_mix =  0.500 |ddv_scf|^2 =  1.362E-10

      iter #   7 total cpu time :  2407.1 secs   av.it.:  20.2
      thresh= 1.167E-06 alpha_mix =  0.500 |ddv_scf|^2 =  4.071E-12

      iter #   8 total cpu time :  2411.7 secs   av.it.:  20.5
      thresh= 2.018E-07 alpha_mix =  0.500 |ddv_scf|^2 =  2.910E-13

      iter #   9 total cpu time :  2416.2 secs   av.it.:  19.8
      thresh= 5.394E-08 alpha_mix =  0.500 |ddv_scf|^2 =  8.445E-14

      iter #  10 total cpu time :  2420.9 secs   av.it.:  21.2
      thresh= 2.906E-08 alpha_mix =  0.500 |ddv_scf|^2 =  3.769E-13

      iter #  11 total cpu time :  2425.4 secs   av.it.:  19.2
      thresh= 6.140E-08 alpha_mix =  0.500 |ddv_scf|^2 =  2.389E-14

      iter #  12 total cpu time :  2430.0 secs   av.it.:  20.2
      thresh= 1.546E-08 alpha_mix =  0.500 |ddv_scf|^2 =  3.547E-15

     End of self-consistent calculation

     Convergence has been achieved 


     Representation #  27 mode #  27

     Self-consistent Calculation

      iter #   1 total cpu time :  2433.5 secs   av.it.:   9.2
      thresh= 1.000E-02 alpha_mix =  0.500 |ddv_scf|^2 =  1.507E-07

      iter #   2 total cpu time :  2438.3 secs   av.it.:  21.2
      thresh= 3.883E-05 alpha_mix =  0.500 |ddv_scf|^2 =  6.729E-07

      iter #   3 total cpu time :  2442.6 secs   av.it.:  19.0
      thresh= 8.203E-05 alpha_mix =  0.500 |ddv_scf|^2 =  3.480E-08

      iter #   4 total cpu time :  2447.2 secs   av.it.:  19.0
      thresh= 1.866E-05 alpha_mix =  0.500 |ddv_scf|^2 =  8.076E-10

      iter #   5 total cpu time :  2451.9 secs   av.it.:  20.2
      thresh= 2.842E-06 alpha_mix =  0.500 |ddv_scf|^2 =  2.020E-10

      iter #   6 total cpu time :  2456.4 secs   av.it.:  20.0
      thresh= 1.421E-06 alpha_mix =  0.500 |ddv_scf|^2 =  7.851E-12

      iter #   7 total cpu time :  2461.4 secs   av.it.:  20.2
      thresh= 2.802E-07 alpha_mix =  0.500 |ddv_scf|^2 =  3.248E-12

      iter #   8 total cpu time :  2465.9 secs   av.it.:  19.8
      thresh= 1.802E-07 alpha_mix =  0.500 |ddv_scf|^2 =  6.748E-13

      iter #   9 total cpu time :  2470.4 secs   av.it.:  19.8
      thresh= 8.215E-08 alpha_mix =  0.500 |ddv_scf|^2 =  9.501E-15

     End of self-consistent calculation

     Convergence has been achieved 


     Representation #  28 mode #  28

     Self-consistent Calculation

      iter #   1 total cpu time :  2473.8 secs   av.it.:   9.5
      thresh= 1.000E-02 alpha_mix =  0.500 |ddv_scf|^2 =  4.365E-07

      iter #   2 total cpu time :  2478.4 secs   av.it.:  20.5
      thresh= 6.607E-05 alpha_mix =  0.500 |ddv_scf|^2 =  1.465E-06

      iter #   3 total cpu time :  2482.8 secs   av.it.:  19.0
      thresh= 1.211E-04 alpha_mix =  0.500 |ddv_scf|^2 =  1.867E-07

      iter #   4 total cpu time :  2487.2 secs   av.it.:  18.8
      thresh= 4.320E-05 alpha_mix =  0.500 |ddv_scf|^2 =  3.818E-09

      iter #   5 total cpu time :  2491.6 secs   av.it.:  19.5
      thresh= 6.179E-06 alpha_mix =  0.500 |ddv_scf|^2 =  6.716E-11

      iter #   6 total cpu time :  2496.1 secs   av.it.:  19.5
      thresh= 8.195E-07 alpha_mix =  0.500 |ddv_scf|^2 =  4.360E-12

      iter #   7 total cpu time :  2500.6 secs   av.it.:  19.8
      thresh= 2.088E-07 alpha_mix =  0.500 |ddv_scf|^2 =  1.871E-13

      iter #   8 total cpu time :  2505.3 secs   av.it.:  20.5
      thresh= 4.326E-08 alpha_mix =  0.500 |ddv_scf|^2 =  9.602E-14

      iter #   9 total cpu time :  2509.8 secs   av.it.:  20.0
      thresh= 3.099E-08 alpha_mix =  0.500 |ddv_scf|^2 =  4.740E-14

      iter #  10 total cpu time :  2514.3 secs   av.it.:  20.2
      thresh= 2.177E-08 alpha_mix =  0.500 |ddv_scf|^2 =  2.348E-15

     End of self-consistent calculation

     Convergence has been achieved 


     Representation #  29 mode #  29

     Self-consistent Calculation

      iter #   1 total cpu time :  2517.9 secs   av.it.:   9.5
      thresh= 1.000E-02 alpha_mix =  0.500 |ddv_scf|^2 =  7.773E-07

      iter #   2 total cpu time :  2522.6 secs   av.it.:  20.8
      thresh= 8.817E-05 alpha_mix =  0.500 |ddv_scf|^2 =  2.978E-06

      iter #   3 total cpu time :  2527.0 secs   av.it.:  19.0
      thresh= 1.726E-04 alpha_mix =  0.500 |ddv_scf|^2 =  2.746E-07

      iter #   4 total cpu time :  2531.4 secs   av.it.:  19.0
      thresh= 5.240E-05 alpha_mix =  0.500 |ddv_scf|^2 =  2.914E-09

      iter #   5 total cpu time :  2535.9 secs   av.it.:  20.2
      thresh= 5.398E-06 alpha_mix =  0.500 |ddv_scf|^2 =  1.325E-10

      iter #   6 total cpu time :  2540.5 secs   av.it.:  20.5
      thresh= 1.151E-06 alpha_mix =  0.500 |ddv_scf|^2 =  3.444E-11

      iter #   7 total cpu time :  2545.0 secs   av.it.:  19.5
      thresh= 5.868E-07 alpha_mix =  0.500 |ddv_scf|^2 =  4.217E-12

      iter #   8 total cpu time :  2549.5 secs   av.it.:  19.8
      thresh= 2.053E-07 alpha_mix =  0.500 |ddv_scf|^2 =  1.732E-13

      iter #   9 total cpu time :  2554.0 secs   av.it.:  19.8
      thresh= 4.162E-08 alpha_mix =  0.500 |ddv_scf|^2 =  3.414E-14

      iter #  10 total cpu time :  2558.7 secs   av.it.:  20.5
      thresh= 1.848E-08 alpha_mix =  0.500 |ddv_scf|^2 =  4.054E-15

     End of self-consistent calculation

     Convergence has been achieved 


     Representation #  30 mode #  30

     Self-consistent Calculation

      iter #   1 total cpu time :  2562.2 secs   av.it.:   9.5
      thresh= 1.000E-02 alpha_mix =  0.500 |ddv_scf|^2 =  2.968E-07

      iter #   2 total cpu time :  2566.9 secs   av.it.:  21.2
      thresh= 5.447E-05 alpha_mix =  0.500 |ddv_scf|^2 =  1.687E-06

      iter #   3 total cpu time :  2571.2 secs   av.it.:  18.8
      thresh= 1.299E-04 alpha_mix =  0.500 |ddv_scf|^2 =  4.470E-08

      iter #   4 total cpu time :  2575.7 secs   av.it.:  19.2
      thresh= 2.114E-05 alpha_mix =  0.500 |ddv_scf|^2 =  4.498E-09

      iter #   5 total cpu time :  2580.1 secs   av.it.:  19.2
      thresh= 6.706E-06 alpha_mix =  0.500 |ddv_scf|^2 =  1.067E-10

      iter #   6 total cpu time :  2584.8 secs   av.it.:  20.5
      thresh= 1.033E-06 alpha_mix =  0.500 |ddv_scf|^2 =  3.770E-11

      iter #   7 total cpu time :  2589.3 secs   av.it.:  20.0
      thresh= 6.140E-07 alpha_mix =  0.500 |ddv_scf|^2 =  4.280E-12

      iter #   8 total cpu time :  2593.8 secs   av.it.:  20.0
      thresh= 2.069E-07 alpha_mix =  0.500 |ddv_scf|^2 =  3.264E-13

      iter #   9 total cpu time :  2598.3 secs   av.it.:  19.8
      thresh= 5.713E-08 alpha_mix =  0.500 |ddv_scf|^2 =  5.486E-15

     End of self-consistent calculation

     Convergence has been achieved 


     Representation #  31 mode #  31

     Self-consistent Calculation

      iter #   1 total cpu time :  2602.1 secs   av.it.:  11.0
      thresh= 1.000E-02 alpha_mix =  0.500 |ddv_scf|^2 =  6.858E-07

      iter #   2 total cpu time :  2606.8 secs   av.it.:  21.2
      thresh= 8.281E-05 alpha_mix =  0.500 |ddv_scf|^2 =  1.078E-06

      iter #   3 total cpu time :  2611.3 secs   av.it.:  19.8
      thresh= 1.038E-04 alpha_mix =  0.500 |ddv_scf|^2 =  6.441E-07

      iter #   4 total cpu time :  2615.6 secs   av.it.:  18.5
      thresh= 8.026E-05 alpha_mix =  0.500 |ddv_scf|^2 =  2.021E-08

      iter #   5 total cpu time :  2620.1 secs   av.it.:  19.8
      thresh= 1.422E-05 alpha_mix =  0.500 |ddv_scf|^2 =  7.815E-10

[...]

      iter #   7 total cpu time :  2951.2 secs   av.it.:  19.0
      thresh= 1.454E-06 alpha_mix =  0.500 |ddv_scf|^2 =  1.174E-11

      iter #   8 total cpu time :  2955.6 secs   av.it.:  19.2
      thresh= 3.426E-07 alpha_mix =  0.500 |ddv_scf|^2 =  2.108E-12

      iter #   9 total cpu time :  2960.3 secs   av.it.:  20.8
      thresh= 1.452E-07 alpha_mix =  0.500 |ddv_scf|^2 =  1.514E-12

      iter #  10 total cpu time :  2964.8 secs   av.it.:  20.0
      thresh= 1.231E-07 alpha_mix =  0.500 |ddv_scf|^2 =  2.386E-13

      iter #  11 total cpu time :  2969.3 secs   av.it.:  19.8
      thresh= 4.885E-08 alpha_mix =  0.500 |ddv_scf|^2 =  1.083E-13

      iter #  12 total cpu time :  2973.6 secs   av.it.:  19.0
      thresh= 3.291E-08 alpha_mix =  0.500 |ddv_scf|^2 =  5.362E-15

     End of self-consistent calculation

     Convergence has been achieved 


     Representation #  40 mode #  40

     Self-consistent Calculation

      iter #   1 total cpu time :  2977.2 secs   av.it.:  10.2
      thresh= 1.000E-02 alpha_mix =  0.500 |ddv_scf|^2 =  4.962E-06

      iter #   2 total cpu time :  2981.6 secs   av.it.:  18.8
      thresh= 2.228E-04 alpha_mix =  0.500 |ddv_scf|^2 =  1.197E-05

      iter #   3 total cpu time :  2985.7 secs   av.it.:  17.8
      thresh= 3.460E-04 alpha_mix =  0.500 |ddv_scf|^2 =  3.683E-07

      iter #   4 total cpu time :  2990.0 secs   av.it.:  18.8
      thresh= 6.069E-05 alpha_mix =  0.500 |ddv_scf|^2 =  1.899E-08

      iter #   5 total cpu time :  2994.5 secs   av.it.:  19.8
      thresh= 1.378E-05 alpha_mix =  0.500 |ddv_scf|^2 =  9.599E-09

      iter #   6 total cpu time :  2998.8 secs   av.it.:  18.8
      thresh= 9.797E-06 alpha_mix =  0.500 |ddv_scf|^2 =  9.591E-10

      iter #   7 total cpu time :  3003.0 secs   av.it.:  18.5
      thresh= 3.097E-06 alpha_mix =  0.500 |ddv_scf|^2 =  7.268E-12

      iter #   8 total cpu time :  3007.6 secs   av.it.:  20.5
      thresh= 2.696E-07 alpha_mix =  0.500 |ddv_scf|^2 =  6.018E-12

      iter #   9 total cpu time :  3012.2 secs   av.it.:  20.2
      thresh= 2.453E-07 alpha_mix =  0.500 |ddv_scf|^2 =  5.688E-12

      iter #  10 total cpu time :  3016.5 secs   av.it.:  18.8
      thresh= 2.385E-07 alpha_mix =  0.500 |ddv_scf|^2 =  6.643E-13

      iter #  11 total cpu time :  3020.9 secs   av.it.:  18.8
      thresh= 8.151E-08 alpha_mix =  0.500 |ddv_scf|^2 =  9.371E-14

      iter #  12 total cpu time :  3025.2 secs   av.it.:  18.5
      thresh= 3.061E-08 alpha_mix =  0.500 |ddv_scf|^2 =  1.092E-14

      iter #  13 total cpu time :  3029.6 secs   av.it.:  18.8
      thresh= 1.045E-08 alpha_mix =  0.500 |ddv_scf|^2 =  4.049E-15

     End of self-consistent calculation

     Convergence has been achieved 


     Representation #  41 mode #  41

     Self-consistent Calculation

      iter #   1 total cpu time :  3033.1 secs   av.it.:   9.5
      thresh= 1.000E-02 alpha_mix =  0.500 |ddv_scf|^2 =  2.258E-06

      iter #   2 total cpu time :  3037.6 secs   av.it.:  19.8
      thresh= 1.503E-04 alpha_mix =  0.500 |ddv_scf|^2 =  5.718E-06

      iter #   3 total cpu time :  3041.8 secs   av.it.:  18.2
      thresh= 2.391E-04 alpha_mix =  0.500 |ddv_scf|^2 =  2.519E-07

      iter #   4 total cpu time :  3046.2 secs   av.it.:  19.0
      thresh= 5.019E-05 alpha_mix =  0.500 |ddv_scf|^2 =  1.948E-08

      iter #   5 total cpu time :  3050.7 secs   av.it.:  19.8
      thresh= 1.396E-05 alpha_mix =  0.500 |ddv_scf|^2 =  7.073E-09

      iter #   6 total cpu time :  3055.0 secs   av.it.:  19.0
      thresh= 8.410E-06 alpha_mix =  0.500 |ddv_scf|^2 =  2.033E-10

      iter #   7 total cpu time :  3059.4 secs   av.it.:  18.8
      thresh= 1.426E-06 alpha_mix =  0.500 |ddv_scf|^2 =  8.131E-12

      iter #   8 total cpu time :  3064.1 secs   av.it.:  21.0
      thresh= 2.851E-07 alpha_mix =  0.500 |ddv_scf|^2 =  8.521E-12

      iter #   9 total cpu time :  3068.5 secs   av.it.:  19.2
      thresh= 2.919E-07 alpha_mix =  0.500 |ddv_scf|^2 =  6.723E-13

      iter #  10 total cpu time :  3073.1 secs   av.it.:  20.8
      thresh= 8.199E-08 alpha_mix =  0.500 |ddv_scf|^2 =  2.078E-12

      iter #  11 total cpu time :  3077.5 secs   av.it.:  19.2
      thresh= 1.441E-07 alpha_mix =  0.500 |ddv_scf|^2 =  1.204E-13

      iter #  12 total cpu time :  3082.2 secs   av.it.:  20.5
      thresh= 3.470E-08 alpha_mix =  0.500 |ddv_scf|^2 =  2.486E-13

      iter #  13 total cpu time :  3086.5 secs   av.it.:  18.5
      thresh= 4.986E-08 alpha_mix =  0.500 |ddv_scf|^2 =  1.429E-14

      iter #  14 total cpu time :  3090.9 secs   av.it.:  19.8
      thresh= 1.195E-08 alpha_mix =  0.500 |ddv_scf|^2 =  1.095E-15

     End of self-consistent calculation

     Convergence has been achieved 


     Representation #  42 mode #  42

     Self-consistent Calculation

      iter #   1 total cpu time :  3094.8 secs   av.it.:  11.2
      thresh= 1.000E-02 alpha_mix =  0.500 |ddv_scf|^2 =  1.432E-06

      iter #   2 total cpu time :  3099.4 secs   av.it.:  20.5
      thresh= 1.197E-04 alpha_mix =  0.500 |ddv_scf|^2 =  4.533E-06

      iter #   3 total cpu time :  3103.7 secs   av.it.:  18.8
      thresh= 2.129E-04 alpha_mix =  0.500 |ddv_scf|^2 =  3.527E-07

      iter #   4 total cpu time :  3108.0 secs   av.it.:  19.5
      thresh= 5.939E-05 alpha_mix =  0.500 |ddv_scf|^2 =  1.022E-07

      iter #   5 total cpu time :  3112.4 secs   av.it.:  19.5
      thresh= 3.197E-05 alpha_mix =  0.500 |ddv_scf|^2 =  1.595E-08

      iter #   6 total cpu time :  3116.7 secs   av.it.:  18.5
      thresh= 1.263E-05 alpha_mix =  0.500 |ddv_scf|^2 =  1.282E-09

      iter #   7 total cpu time :  3121.2 secs   av.it.:  19.5
      thresh= 3.581E-06 alpha_mix =  0.500 |ddv_scf|^2 =  4.505E-11

      iter #   8 total cpu time :  3125.8 secs   av.it.:  20.5
      thresh= 6.712E-07 alpha_mix =  0.500 |ddv_scf|^2 =  2.630E-11

      iter #   9 total cpu time :  3130.3 secs   av.it.:  19.8
      thresh= 5.128E-07 alpha_mix =  0.500 |ddv_scf|^2 =  7.683E-12

      iter #  10 total cpu time :  3134.9 secs   av.it.:  20.0
      thresh= 2.772E-07 alpha_mix =  0.500 |ddv_scf|^2 =  5.742E-12

      iter #  11 total cpu time :  3139.5 secs   av.it.:  19.8
      thresh= 2.396E-07 alpha_mix =  0.500 |ddv_scf|^2 =  1.702E-13

      iter #  12 total cpu time :  3143.8 secs   av.it.:  18.5
      thresh= 4.125E-08 alpha_mix =  0.500 |ddv_scf|^2 =  2.541E-14

      iter #  13 total cpu time :  3148.3 secs   av.it.:  20.0
      thresh= 1.594E-08 alpha_mix =  0.500 |ddv_scf|^2 =  2.810E-14

      iter #  14 total cpu time :  3152.7 secs   av.it.:  19.2
      thresh= 1.676E-08 alpha_mix =  0.500 |ddv_scf|^2 =  9.105E-16

     End of self-consistent calculation

     Convergence has been achieved 

     Number of q in the star =    1
     List of q in the star:
          1   0.000000000   0.000000000   0.000000000

          Dielectric constant in cartesian axis 

          (       5.651752002       0.000000000       0.000000000 )
          (       0.000000000       3.303632085       0.000000000 )
          (       0.000000000       0.000000000       6.395080903 )

          Effective charges (d Force / dE) in cartesian axis

           atom      1   V  
      Ex  (        6.26789        0.00000        0.00000 )
      Ey  (       -0.00000        2.83722       -0.04065 )
      Ez  (        0.00000       -0.49396        6.64824 )
           atom      2   V  
      Ex  (        6.26789        0.00000        0.00000 )
      Ey  (        0.00000        2.83722       -0.04065 )
      Ez  (       -0.00000       -0.49396        6.64824 )
           atom      3   V  
      Ex  (        6.26789        0.00000       -0.00000 )
      Ey  (       -0.00000        2.83722        0.04065 )
      Ez  (        0.00000        0.49396        6.64824 )
           atom      4   V  
      Ex  (        6.26789        0.00000        0.00000 )
      Ey  (        0.00000        2.83722        0.04065 )
      Ez  (        0.00000        0.49396        6.64824 )
           atom      5   O  
      Ex  (       -5.22693       -0.00000        0.00000 )
      Ey  (        0.00000       -0.69744       -0.29785 )
      Ez  (        0.00000       -0.80718       -2.70826 )
           atom      6   O  
      Ex  (       -5.22693       -0.00000       -0.00000 )
      Ey  (        0.00000       -0.69744       -0.29785 )
      Ez  (       -0.00000       -0.80718       -2.70826 )
           atom      7   O  
      Ex  (       -5.22693       -0.00000       -0.00000 )
      Ey  (        0.00000       -0.69744        0.29785 )
      Ez  (        0.00000        0.80718       -2.70826 )
           atom      8   O  
      Ex  (       -5.22693       -0.00000        0.00000 )
      Ey  (        0.00000       -0.69744        0.29785 )
      Ez  (        0.00000        0.80718       -2.70826 )
           atom      9   O  
      Ex  (       -0.51457       -0.00000        0.00000 )
      Ey  (        0.00000       -1.83675       -0.08004 )
      Ez  (        0.00000       -0.18196       -0.47932 )
           atom     10   O  
      Ex  (       -0.51457       -0.00000        0.00000 )
      Ey  (        0.00000       -1.83675       -0.08004 )
      Ez  (        0.00000       -0.18196       -0.47932 )
           atom     11   O  
      Ex  (       -0.51457       -0.00000        0.00000 )
      Ey  (        0.00000       -1.83675        0.08004 )
      Ez  (        0.00000        0.18196       -0.47932 )
           atom     12   O  
      Ex  (       -1.03764       -0.00000        0.00000 )
      Ey  (        0.00000       -0.62975        0.00000 )
      Ez  (       -0.00000        0.00000       -7.05577 )
           atom     13   O  
      Ex  (       -1.03764       -0.00000       -0.00000 )
      Ey  (        0.00000       -0.62975        0.00000 )
      Ez  (        0.00000        0.00000       -7.05577 )
           atom     14   O  
      Ex  (       -0.51457       -0.00000       -0.00000 )
      Ey  (        0.00000       -1.83675        0.08004 )
      Ez  (        0.00000        0.18196       -0.47932 )

     Diagonalizing the dynamical matrix

     q = (    0.000000000   0.000000000   0.000000000 ) 

 **************************************************************************
     freq (    1) =      -0.416388 [THz] =     -13.889203 [cm-1]
     freq (    2) =      -0.153068 [THz] =      -5.105791 [cm-1]
     freq (    3) =       0.528400 [THz] =      17.625522 [cm-1]
     freq (    4) =       1.868711 [THz] =      62.333483 [cm-1]
     freq (    5) =       1.986730 [THz] =      66.270192 [cm-1]
     freq (    6) =       2.772153 [THz] =      92.469080 [cm-1]
     freq (    7) =       3.799149 [THz] =     126.725968 [cm-1]
     freq (    8) =       3.878369 [THz] =     129.368450 [cm-1]
     freq (    9) =       3.993328 [THz] =     133.203070 [cm-1]
     freq (   10) =       4.159553 [THz] =     138.747760 [cm-1]
     freq (   11) =       5.555819 [THz] =     185.322175 [cm-1]
     freq (   12) =       5.607288 [THz] =     187.039007 [cm-1]
     freq (   13) =       6.167329 [THz] =     205.719952 [cm-1]
     freq (   14) =       6.970420 [THz] =     232.508179 [cm-1]
     freq (   15) =       7.346555 [THz] =     245.054686 [cm-1]
     freq (   16) =       7.919404 [THz] =     264.162895 [cm-1]
     freq (   17) =       8.368396 [THz] =     279.139628 [cm-1]
     freq (   18) =       8.383165 [THz] =     279.632280 [cm-1]
     freq (   19) =       8.415076 [THz] =     280.696726 [cm-1]
     freq (   20) =       8.559903 [THz] =     285.527638 [cm-1]
     freq (   21) =       8.807162 [THz] =     293.775318 [cm-1]
     freq (   22) =       8.960719 [THz] =     298.897417 [cm-1]
     freq (   23) =       9.766948 [THz] =     325.790317 [cm-1]
     freq (   24) =      10.144476 [THz] =     338.383283 [cm-1]
     freq (   25) =      10.646688 [THz] =     355.135301 [cm-1]
     freq (   26) =      11.873263 [THz] =     396.049406 [cm-1]
     freq (   27) =      11.900795 [THz] =     396.967779 [cm-1]
     freq (   28) =      13.446856 [THz] =     448.538820 [cm-1]
     freq (   29) =      13.564705 [THz] =     452.469843 [cm-1]
     freq (   30) =      13.678880 [THz] =     456.278331 [cm-1]
     freq (   31) =      13.956316 [THz] =     465.532590 [cm-1]
     freq (   32) =      14.126533 [THz] =     471.210421 [cm-1]
     freq (   33) =      15.454298 [THz] =     515.499900 [cm-1]
     freq (   34) =      17.778483 [THz] =     593.026352 [cm-1]
     freq (   35) =      19.731769 [THz] =     658.180973 [cm-1]
     freq (   36) =      19.736049 [THz] =     658.323724 [cm-1]
     freq (   37) =      22.098193 [THz] =     737.116386 [cm-1]
     freq (   38) =      26.940834 [THz] =     898.649491 [cm-1]
     freq (   39) =      29.862867 [THz] =     996.118007 [cm-1]
     freq (   40) =      30.022839 [THz] =    1001.454117 [cm-1]
     freq (   41) =      30.411863 [THz] =    1014.430566 [cm-1]
     freq (   42) =      30.541789 [THz] =    1018.764418 [cm-1]
 **************************************************************************

     Mode symmetry, D_2h (mmm)  point group:

     freq (   1-   1) =        -13.9  [cm-1]   --> B_1u            I  
     freq (   2-   2) =         -5.1  [cm-1]   --> B_2u            I  
     freq (   3-   3) =         17.6  [cm-1]   --> B_3u            I  
     freq (   4-   4) =         62.3  [cm-1]   --> B_1u            I  
     freq (   5-   5) =         66.3  [cm-1]   --> A_u                
     freq (   6-   6) =         92.5  [cm-1]   --> A_g             R  
     freq (   7-   7) =        126.7  [cm-1]   --> B_3u            I  
     freq (   8-   8) =        129.4  [cm-1]   --> B_2g            R  
     freq (   9-   9) =        133.2  [cm-1]   --> B_3g            R  
     freq (  10-  10) =        138.7  [cm-1]   --> B_1g            R  
     freq (  11-  11) =        185.3  [cm-1]   --> A_g             R  
     freq (  12-  12) =        187.0  [cm-1]   --> B_2g            R  
     freq (  13-  13) =        205.7  [cm-1]   --> B_2u            I  
     freq (  14-  14) =        232.5  [cm-1]   --> B_1g            R  
     freq (  15-  15) =        245.1  [cm-1]   --> B_1u            I  
     freq (  16-  16) =        264.2  [cm-1]   --> A_u                
     freq (  17-  17) =        279.1  [cm-1]   --> B_3g            R  
     freq (  18-  18) =        279.6  [cm-1]   --> B_3u            I  
     freq (  19-  19) =        280.7  [cm-1]   --> B_2u            I  
     freq (  20-  20) =        285.5  [cm-1]   --> B_1g            R  
     freq (  21-  21) =        293.8  [cm-1]   --> A_g             R  
     freq (  22-  22) =        298.9  [cm-1]   --> B_2g            R  
     freq (  23-  23) =        325.8  [cm-1]   --> B_1u            I  
     freq (  24-  24) =        338.4  [cm-1]   --> B_2g            R  
     freq (  25-  25) =        355.1  [cm-1]   --> B_3u            I  
     freq (  26-  26) =        396.0  [cm-1]   --> B_1u            I  
     freq (  27-  27) =        397.0  [cm-1]   --> A_g             R  
     freq (  28-  28) =        448.5  [cm-1]   --> A_u                
     freq (  29-  29) =        452.5  [cm-1]   --> A_g             R  
     freq (  30-  30) =        456.3  [cm-1]   --> B_2u            I  
     freq (  31-  31) =        465.5  [cm-1]   --> B_3u            I  
     freq (  32-  32) =        471.2  [cm-1]   --> B_2g            R  
     freq (  33-  33) =        515.5  [cm-1]   --> A_g             R  
     freq (  34-  34) =        593.0  [cm-1]   --> B_3u            I  
     freq (  35-  35) =        658.2  [cm-1]   --> B_3g            R  
     freq (  36-  36) =        658.3  [cm-1]   --> B_1g            R  
     freq (  37-  37) =        737.1  [cm-1]   --> B_1u            I  
     freq (  38-  38) =        898.6  [cm-1]   --> B_2g            R  
     freq (  39-  39) =        996.1  [cm-1]   --> B_1u            I  
     freq (  40-  40) =       1001.5  [cm-1]   --> B_3u            I  
     freq (  41-  41) =       1014.4  [cm-1]   --> B_2g            R  
     freq (  42-  42) =       1018.8  [cm-1]   --> A_g             R  

     PHONON       :  49m18.66s CPU  52m33.44s WALL

     INITIALIZATION: 
     phq_setup    :      0.03s CPU      0.04s WALL (       1 calls)
     phq_init     :      1.61s CPU      1.68s WALL (       1 calls)

     phq_init     :      1.61s CPU      1.68s WALL (       1 calls)
     set_drhoc    :      0.55s CPU      0.56s WALL (       3 calls)
     init_vloc    :      0.09s CPU      0.09s WALL (       1 calls)
     init_us_1    :      0.05s CPU      0.05s WALL (       1 calls)

     DIELECTRIC CONSTANT AND EFFECTIVE CHARGES:
     solve_e      :    232.94s CPU    247.71s WALL (       1 calls)
     dielec       :      0.00s CPU      0.01s WALL (       1 calls)
     zstar_eu     :     66.09s CPU     88.75s WALL (       1 calls)

     RAMAN COEFFICIENTS, THIRD-ORDER CHI:
     dhdrhopsi    :    354.47s CPU    361.48s WALL (       1 calls)
     dvpsi_e2     :      5.82s CPU      7.03s WALL (       1 calls)
     solve_e2     :    606.32s CPU    648.10s WALL (       1 calls)

     DYNAMICAL MATRIX:
     dynmat0      :      1.10s CPU      1.17s WALL (       1 calls)
     phqscf       :   1653.84s CPU   1760.15s WALL (       1 calls)
     dynmatrix    :      0.01s CPU      0.01s WALL (       1 calls)

     phqscf       :   1653.84s CPU   1760.15s WALL (       1 calls)
     solve_linter :   1647.40s CPU   1753.40s WALL (      42 calls)
     drhodv       :      6.31s CPU      6.56s WALL (      42 calls)

     dynmat0      :      1.10s CPU      1.17s WALL (       1 calls)
     dynmat_us    :      0.31s CPU      0.32s WALL (       1 calls)
     d2ionq       :      0.25s CPU      0.25s WALL (       1 calls)
     dynmatcc     :      0.53s CPU      0.59s WALL (       1 calls)

     dynmat_us    :      0.31s CPU      0.32s WALL (       1 calls)

     phqscf       :   1653.84s CPU   1760.15s WALL (       1 calls)
     solve_linter :   1647.40s CPU   1753.40s WALL (      42 calls)

     solve_linter :   1647.40s CPU   1753.40s WALL (      42 calls)
     dvqpsi_us    :     85.37s CPU    108.44s WALL (    1008 calls)
     ortho        :      7.81s CPU      7.96s WALL (    1912 calls)
     cgsolve      :   2313.80s CPU   2354.14s WALL (    2632 calls)
     incdrhoscf   :     33.67s CPU     35.66s WALL (    2476 calls)
     vpsifft      :     18.44s CPU     20.10s WALL (    1444 calls)
     dv_of_drho   :    236.27s CPU    317.45s WALL (     628 calls)
     mix_pot      :      4.43s CPU      8.99s WALL (     448 calls)
     psymdvscf    :    108.52s CPU    120.39s WALL (     403 calls)

     dvqpsi_us    :     85.37s CPU    108.44s WALL (    1008 calls)
     dvqpsi_us_on :     10.07s CPU     10.13s WALL (    1008 calls)

     cgsolve      :   2313.80s CPU   2354.14s WALL (    2632 calls)
     ch_psi       :   2243.97s CPU   2283.71s WALL (   85480 calls)

     ch_psi       :   2243.97s CPU   2283.71s WALL (   85480 calls)
     h_psi        :   1521.21s CPU   1553.00s WALL (  122400 calls)
     last         :    728.54s CPU    736.95s WALL (   85480 calls)

     h_psi        :   1521.21s CPU   1553.00s WALL (  122400 calls)
     add_vuspsi   :    327.73s CPU    328.73s WALL (  122400 calls)

     incdrhoscf   :     33.67s CPU     35.66s WALL (    2476 calls)


      General routines
     calbec       :    958.03s CPU    978.15s WALL (  247599 calls)
     fft          :    124.17s CPU    142.88s WALL (   91282 calls)
     ffts         :      1.24s CPU      1.30s WALL (    4026 calls)
     fftw         :    742.00s CPU    764.66s WALL ( 6858966 calls)
     davcio       :      3.86s CPU     10.97s WALL (   14454 calls)
     write_rec    :      0.49s CPU      1.25s WALL (     490 calls)


     PHONON       :  49m18.66s CPU  52m33.44s WALL


   This run was terminated on:  20:18:44  13Oct2024            

=------------------------------------------------------------------------------=
   JOB DONE.
=------------------------------------------------------------------------------=
