
     Program PWSCF v.6.7MaX starts on 13Oct2024 at 19:17:36 

     This program is part of the open-source Quantum ESPRESSO suite
     for quantum simulation of materials; please cite
         "P. Giannozzi et al., J. Phys.:Condens. Matter 21 395502 (2009);
         "P. Giannozzi et al., J. Phys.:Condens. Matter 29 465901 (2017);
          URL http://www.quantum-espresso.org", 
     in publications or presentations arising from this work. More details at
     http://www.quantum-espresso.org/quote

     Parallel version (MPI), running on    32 processors

     MPI processes distributed on     1 nodes
     R & G space division:  proc/nbgrp/npool/nimage =      32
     Reading input from v2o5.scf.in

     Current dimensions of program PWSCF are:
     Max number of different atomic species (ntypx) = 10
     Max number of k-points (npk) =  40000
     Max angular momentum in pseudopotentials (lmaxx) =  3
     Message from routine read_pp_mesh:
     mesh size missing, using the one in header
     Message from routine read_pp_mesh:
     mesh size missing, using the one in header

     IMPORTANT: XC functional enforced from input :
     Exchange-correlation= VDW-DF
                           (   1   4   4   0   1   0   0)
     Any further DFT definition will be discarded
     Please, verify this is what you really want


     Subspace diagonalization in iterative solution of the eigenvalue problem:
     a serial algorithm will be used


     Parallelization info
     --------------------
     sticks:   dense  smooth     PW     G-vecs:    dense   smooth      PW
     Min         119      47     12                15773     3985     560
     Max         120      48     13                15784     4000     571
     Sum        3819    1525    415               504869   127733   18131



     bravais-lattice index     =            8
     lattice parameter (alat)  =       6.7655  a.u.
     unit-cell volume          =    1321.4657 (a.u.)^3
     number of atoms/cell      =           14
     number of atomic types    =            2
     number of electrons       =       112.00
     number of Kohn-Sham states=           56
     kinetic-energy cutoff     =      80.0000  Ry
     charge density cutoff     =     800.0000  Ry
     scf convergence threshold =      1.0E-12
     mixing beta               =       0.7000
     number of iterations used =            8  plain     mixing
     Exchange-correlation= VDW-DF
                           (   1   4   4   0   1   0   0)

     celldm(1)=   6.765538  celldm(2)=   1.309785  celldm(3)=   3.257984
     celldm(4)=   0.000000  celldm(5)=   0.000000  celldm(6)=   0.000000

     crystal axes: (cart. coord. in units of alat)
               a(1) = (   1.000000   0.000000   0.000000 )  
               a(2) = (   0.000000   1.309785   0.000000 )  
               a(3) = (   0.000000   0.000000   3.257984 )  

     reciprocal axes: (cart. coord. in units 2 pi/alat)
               b(1) = (  1.000000  0.000000  0.000000 )  
               b(2) = (  0.000000  0.763484  0.000000 )  
               b(3) = (  0.000000  0.000000  0.306938 )  


     PseudoPot. # 1 for V  read from file:
     /home/mpicuntureo/pseudos/v.nc.upf
     MD5 check sum: 40fb93c06b4f9d8c28c5ccd071294a04
     Pseudo is Norm-conserving + core correction, Zval = 13.0
     Generated using ONCVPSP code by D. R. Hamann
     Using radial grid of 1536 points,  6 beta functions with: 
                l(1) =   0
                l(2) =   0
                l(3) =   1
                l(4) =   1
                l(5) =   2
                l(6) =   2

     PseudoPot. # 2 for O  read from file:
     /home/mpicuntureo/pseudos/o.nc.upf
     MD5 check sum: 3e3f909f7470e8921608ab6b1f57bbae
     Pseudo is Norm-conserving + core correction, Zval =  6.0
     Generated using ONCVPSP code by D. R. Hamann
     Using radial grid of  936 points,  5 beta functions with: 
                l(1) =   0
                l(2) =   0
                l(3) =   1
                l(4) =   1
                l(5) =   2

     atomic species   valence    mass     pseudopotential
        V             13.00    50.94150     V ( 1.00)
        O              6.00    15.99940     O ( 1.00)

      8 Sym. Ops., with inversion, found ( 4 have fractional translation)



   Cartesian axes

     site n.     atom                  positions (alat units)
         1           V   tau(   1) = (   0.0000000   0.5100523   2.1098572  )
         2           V   tau(   2) = (   0.5000000   0.7997327   2.7771189  )
         3           V   tau(   3) = (   0.5000000   0.7997327   0.4808652  )
         4           V   tau(   4) = (   0.0000000   0.5100523   1.1481268  )
         5           O   tau(   5) = (   0.5000000   0.6477797   2.2193486  )
         6           O   tau(   6) = (   0.0000000   0.6620053   2.6676275  )
         7           O   tau(   7) = (   0.0000000   0.6620053   0.5903565  )
         8           O   tau(   8) = (   0.5000000   0.6477797   1.0386355  )
         9           O   tau(   9) = (   0.0000000   0.0656124   1.1635860  )
        10           O   tau(  10) = (   0.5000000   1.2441726   0.4654061  )
        11           O   tau(  11) = (   0.5000000   1.2441726   2.7925780  )
        12           O   tau(  12) = (   0.5000000   0.6538202   0.0000000  )
        13           O   tau(  13) = (   0.0000000   0.6559648   1.6289920  )
        14           O   tau(  14) = (   0.0000000   0.0656124   2.0943981  )

     number of k points=     4
                       cart. coord. in units 2pi/alat
        k(    1) = (   0.0000000   0.0000000   0.0000000), wk =   0.2222222
        k(    2) = (   0.0000000   0.2544947   0.0000000), wk =   0.4444444
        k(    3) = (   0.3333333   0.0000000   0.0000000), wk =   0.4444444
        k(    4) = (   0.3333333   0.2544947   0.0000000), wk =   0.8888889

     Dense  grid:   504869 G-vectors     FFT dimensions: (  64,  80, 200)

     Smooth grid:   127733 G-vectors     FFT dimensions: (  40,  54, 128)

     Estimated max dynamical RAM per process >      20.08 MB

     Estimated total dynamical RAM >     642.42 MB

     Initial potential from superposition of free atoms

     starting charge  111.99579, renormalised to  112.00000


     %%%%%%%%%%%%%%%%%%%%%%%%%%%%%%%%%%%%%%%%%%%%%%%%%%%%%%%%%%%%%%%%%%%%%%%%
     %                                                                      %
     % You are using vdW-DF, which was implemented by the Thonhauser group. %
     % Please cite the following two papers that made this development      %
     % possible and the two reviews that describe the various versions:     %
     %                                                                      %
     %   T. Thonhauser et al., PRL 115, 136402 (2015).                      %
     %   T. Thonhauser et al., PRB 76, 125112 (2007).                       %
     %   K. Berland et al., Rep. Prog. Phys. 78, 066501 (2015).             %
     %   D.C. Langreth et al., J. Phys.: Condens. Matter 21, 084203 (2009). %
     %                                                                      %
     %                                                                      %
     % If you are calculating the stress with vdW-DF, please also cite:     %
     %                                                                      %
     %   R. Sabatini et al., J. Phys.: Condens. Matter 24, 424209 (2012).   %
     %                                                                      %
     %%%%%%%%%%%%%%%%%%%%%%%%%%%%%%%%%%%%%%%%%%%%%%%%%%%%%%%%%%%%%%%%%%%%%%%%


     Starting wfcs are   80 randomized atomic wfcs

     total cpu time spent up to now is        4.0 secs

     Self-consistent Calculation

     iteration #  1     ecut=    80.00 Ry     beta= 0.70
     Davidson diagonalization with overlap
     ethr =  1.00E-02,  avg # of iterations =  2.0

     total cpu time spent up to now is        4.6 secs

     total energy              =    -920.59224743 Ry
     estimated scf accuracy    <       8.86245873 Ry

     iteration #  2     ecut=    80.00 Ry     beta= 0.70
     Davidson diagonalization with overlap
     ethr =  7.91E-03,  avg # of iterations =  8.8

     total cpu time spent up to now is        6.1 secs

     total energy              =    -911.38847113 Ry
     estimated scf accuracy    <     150.79405060 Ry

     iteration #  3     ecut=    80.00 Ry     beta= 0.70
     Davidson diagonalization with overlap
     ethr =  7.91E-03,  avg # of iterations =  7.2

     total cpu time spent up to now is        7.4 secs

     total energy              =    -925.51513223 Ry
     estimated scf accuracy    <       1.97735829 Ry

     iteration #  4     ecut=    80.00 Ry     beta= 0.70
     Davidson diagonalization with overlap
     ethr =  1.77E-03,  avg # of iterations =  5.0

     total cpu time spent up to now is        8.2 secs

     total energy              =    -925.85327314 Ry
     estimated scf accuracy    <       0.46026872 Ry

     iteration #  5     ecut=    80.00 Ry     beta= 0.70
     Davidson diagonalization with overlap
     ethr =  4.11E-04,  avg # of iterations =  5.2

     total cpu time spent up to now is        8.9 secs

     total energy              =    -925.90941967 Ry
     estimated scf accuracy    <       0.47455590 Ry

     iteration #  6     ecut=    80.00 Ry     beta= 0.70
     Davidson diagonalization with overlap
     ethr =  4.11E-04,  avg # of iterations =  4.5

     total cpu time spent up to now is        9.6 secs

     total energy              =    -925.89248982 Ry
     estimated scf accuracy    <       0.18093495 Ry

     iteration #  7     ecut=    80.00 Ry     beta= 0.70
     Davidson diagonalization with overlap
     ethr =  1.62E-04,  avg # of iterations =  6.0

     total cpu time spent up to now is       10.5 secs

     total energy              =    -925.98399539 Ry
     estimated scf accuracy    <       0.07634279 Ry

     iteration #  8     ecut=    80.00 Ry     beta= 0.70
     Davidson diagonalization with overlap
     ethr =  6.82E-05,  avg # of iterations =  2.8

     total cpu time spent up to now is       11.2 secs

     total energy              =    -925.98086567 Ry
     estimated scf accuracy    <       0.09152737 Ry

     iteration #  9     ecut=    80.00 Ry     beta= 0.70
     Davidson diagonalization with overlap
     ethr =  6.82E-05,  avg # of iterations =  1.0

     total cpu time spent up to now is       11.8 secs

     total energy              =    -925.95498762 Ry
     estimated scf accuracy    <       0.08315645 Ry

     iteration # 10     ecut=    80.00 Ry     beta= 0.70
     Davidson diagonalization with overlap
     ethr =  6.82E-05,  avg # of iterations =  4.0

     total cpu time spent up to now is       12.5 secs

     total energy              =    -925.96048167 Ry
     estimated scf accuracy    <       0.01061811 Ry

     iteration # 11     ecut=    80.00 Ry     beta= 0.70
     Davidson diagonalization with overlap
     ethr =  9.48E-06,  avg # of iterations =  9.0

     total cpu time spent up to now is       13.6 secs

     total energy              =    -926.01850076 Ry
     estimated scf accuracy    <       0.05722725 Ry

     iteration # 12     ecut=    80.00 Ry     beta= 0.70
     Davidson diagonalization with overlap
     ethr =  9.48E-06,  avg # of iterations =  1.0

     total cpu time spent up to now is       14.2 secs

     total energy              =    -926.01839842 Ry
     estimated scf accuracy    <       0.04298886 Ry

     iteration # 13     ecut=    80.00 Ry     beta= 0.70
     Davidson diagonalization with overlap
     ethr =  9.48E-06,  avg # of iterations =  1.0

     total cpu time spent up to now is       14.8 secs

     total energy              =    -926.00962587 Ry
     estimated scf accuracy    <       0.04078451 Ry

     iteration # 14     ecut=    80.00 Ry     beta= 0.70
     Davidson diagonalization with overlap
     ethr =  9.48E-06,  avg # of iterations =  5.0

     total cpu time spent up to now is       15.7 secs

     total energy              =    -926.01431349 Ry
     estimated scf accuracy    <       0.00373331 Ry

     iteration # 15     ecut=    80.00 Ry     beta= 0.70
     Davidson diagonalization with overlap
     ethr =  3.33E-06,  avg # of iterations =  3.2

     total cpu time spent up to now is       16.3 secs

     total energy              =    -926.01431985 Ry
     estimated scf accuracy    <       0.00338604 Ry

     iteration # 16     ecut=    80.00 Ry     beta= 0.70
     Davidson diagonalization with overlap
     ethr =  3.02E-06,  avg # of iterations =  2.0

     total cpu time spent up to now is       16.9 secs

     total energy              =    -926.01405856 Ry
     estimated scf accuracy    <       0.00233772 Ry

     iteration # 17     ecut=    80.00 Ry     beta= 0.70
     Davidson diagonalization with overlap
     ethr =  2.09E-06,  avg # of iterations =  5.2

     total cpu time spent up to now is       17.8 secs

     total energy              =    -926.01468620 Ry
     estimated scf accuracy    <       0.00053138 Ry

     iteration # 18     ecut=    80.00 Ry     beta= 0.70
     Davidson diagonalization with overlap
     ethr =  4.74E-07,  avg # of iterations =  6.8

     total cpu time spent up to now is       18.7 secs

     total energy              =    -926.01472400 Ry
     estimated scf accuracy    <       0.00132722 Ry

     iteration # 19     ecut=    80.00 Ry     beta= 0.70
     Davidson diagonalization with overlap
     ethr =  4.74E-07,  avg # of iterations =  2.8

     total cpu time spent up to now is       19.4 secs

     total energy              =    -926.01461039 Ry
     estimated scf accuracy    <       0.00078908 Ry

     iteration # 20     ecut=    80.00 Ry     beta= 0.70
     Davidson diagonalization with overlap
     ethr =  4.74E-07,  avg # of iterations =  5.5

     total cpu time spent up to now is       20.2 secs

     total energy              =    -926.01470571 Ry
     estimated scf accuracy    <       0.00005110 Ry

     iteration # 21     ecut=    80.00 Ry     beta= 0.70
     Davidson diagonalization with overlap
     ethr =  4.56E-08,  avg # of iterations =  6.2

     total cpu time spent up to now is       21.1 secs

     total energy              =    -926.01473023 Ry
     estimated scf accuracy    <       0.00001495 Ry

     iteration # 22     ecut=    80.00 Ry     beta= 0.70
     Davidson diagonalization with overlap
     ethr =  1.33E-08,  avg # of iterations =  3.5

     total cpu time spent up to now is       21.8 secs

     total energy              =    -926.01472838 Ry
     estimated scf accuracy    <       0.00000692 Ry

     iteration # 23     ecut=    80.00 Ry     beta= 0.70
     Davidson diagonalization with overlap
     ethr =  6.18E-09,  avg # of iterations =  6.8

     total cpu time spent up to now is       22.9 secs

     total energy              =    -926.01473074 Ry
     estimated scf accuracy    <       0.00000677 Ry

     iteration # 24     ecut=    80.00 Ry     beta= 0.70
     Davidson diagonalization with overlap
     ethr =  6.04E-09,  avg # of iterations =  1.5

     total cpu time spent up to now is       23.5 secs

     total energy              =    -926.01473025 Ry
     estimated scf accuracy    <       0.00000332 Ry

     iteration # 25     ecut=    80.00 Ry     beta= 0.70
     Davidson diagonalization with overlap
     ethr =  2.96E-09,  avg # of iterations =  5.0

     total cpu time spent up to now is       24.2 secs

     total energy              =    -926.01473067 Ry
     estimated scf accuracy    <       0.00000024 Ry

     iteration # 26     ecut=    80.00 Ry     beta= 0.70
     Davidson diagonalization with overlap
     ethr =  2.18E-10,  avg # of iterations =  9.2

     total cpu time spent up to now is       25.7 secs

     total energy              =    -926.01473121 Ry
     estimated scf accuracy    <       0.00000429 Ry

     iteration # 27     ecut=    80.00 Ry     beta= 0.70
     Davidson diagonalization with overlap
     ethr =  2.18E-10,  avg # of iterations =  1.8

     total cpu time spent up to now is       26.3 secs

     total energy              =    -926.01473087 Ry
     estimated scf accuracy    <       0.00000350 Ry

     iteration # 28     ecut=    80.00 Ry     beta= 0.70
     Davidson diagonalization with overlap
     ethr =  2.18E-10,  avg # of iterations =  6.0

     total cpu time spent up to now is       27.2 secs

     total energy              =    -926.01473084 Ry
     estimated scf accuracy    <       0.00000106 Ry

     iteration # 29     ecut=    80.00 Ry     beta= 0.70
     Davidson diagonalization with overlap
     ethr =  2.18E-10,  avg # of iterations =  5.0

     total cpu time spent up to now is       28.1 secs

     total energy              =    -926.01473087 Ry
     estimated scf accuracy    <       0.00000020 Ry

     iteration # 30     ecut=    80.00 Ry     beta= 0.70
     Davidson diagonalization with overlap
     ethr =  1.75E-10,  avg # of iterations =  5.2

     total cpu time spent up to now is       29.0 secs

     total energy              =    -926.01473092 Ry
     estimated scf accuracy    <       0.00000002 Ry

     iteration # 31     ecut=    80.00 Ry     beta= 0.70
     Davidson diagonalization with overlap
     ethr =  1.34E-11,  avg # of iterations =  5.2

     total cpu time spent up to now is       29.8 secs

     total energy              =    -926.01473092 Ry
     estimated scf accuracy    <       0.00000001 Ry

     iteration # 32     ecut=    80.00 Ry     beta= 0.70
     Davidson diagonalization with overlap
     ethr =  9.88E-12,  avg # of iterations =  7.5

     total cpu time spent up to now is       30.8 secs

     total energy              =    -926.01473092 Ry
     estimated scf accuracy    <       0.00000001 Ry

     iteration # 33     ecut=    80.00 Ry     beta= 0.70
     Davidson diagonalization with overlap
     ethr =  9.88E-12,  avg # of iterations =  4.0

     total cpu time spent up to now is       31.5 secs

     total energy              =    -926.01473093 Ry
     estimated scf accuracy    <          2.7E-09 Ry

     iteration # 34     ecut=    80.00 Ry     beta= 0.70
     Davidson diagonalization with overlap
     ethr =  2.39E-12,  avg # of iterations =  5.0

     total cpu time spent up to now is       32.5 secs

     total energy              =    -926.01473093 Ry
     estimated scf accuracy    <          2.1E-09 Ry

     iteration # 35     ecut=    80.00 Ry     beta= 0.70
     Davidson diagonalization with overlap
     ethr =  1.87E-12,  avg # of iterations =  1.0

     total cpu time spent up to now is       33.0 secs

     total energy              =    -926.01473093 Ry
     estimated scf accuracy    <          1.4E-09 Ry

     iteration # 36     ecut=    80.00 Ry     beta= 0.70
     Davidson diagonalization with overlap
     ethr =  1.26E-12,  avg # of iterations =  2.0

     total cpu time spent up to now is       33.7 secs

     total energy              =    -926.01473093 Ry
     estimated scf accuracy    <          5.4E-10 Ry

     iteration # 37     ecut=    80.00 Ry     beta= 0.70
     Davidson diagonalization with overlap
     ethr =  4.83E-13,  avg # of iterations =  2.0

     total cpu time spent up to now is       34.3 secs

     total energy              =    -926.01473093 Ry
     estimated scf accuracy    <          4.4E-10 Ry

     iteration # 38     ecut=    80.00 Ry     beta= 0.70
     Davidson diagonalization with overlap
     ethr =  3.91E-13,  avg # of iterations =  1.0

     total cpu time spent up to now is       34.9 secs

     total energy              =    -926.01473093 Ry
     estimated scf accuracy    <          4.1E-10 Ry

     iteration # 39     ecut=    80.00 Ry     beta= 0.70
     Davidson diagonalization with overlap
     ethr =  3.68E-13,  avg # of iterations =  5.0

     total cpu time spent up to now is       35.7 secs

     total energy              =    -926.01473093 Ry
     estimated scf accuracy    <          4.2E-11 Ry

     iteration # 40     ecut=    80.00 Ry     beta= 0.70
     Davidson diagonalization with overlap
     ethr =  1.00E-13,  avg # of iterations =  5.0

     total cpu time spent up to now is       36.6 secs

     total energy              =    -926.01473093 Ry
     estimated scf accuracy    <          2.1E-10 Ry

     iteration # 41     ecut=    80.00 Ry     beta= 0.70
     Davidson diagonalization with overlap
     ethr =  1.00E-13,  avg # of iterations =  1.0

     total cpu time spent up to now is       37.1 secs

     total energy              =    -926.01473093 Ry
     estimated scf accuracy    <          2.3E-10 Ry

     iteration # 42     ecut=    80.00 Ry     beta= 0.70
     Davidson diagonalization with overlap
     ethr =  1.00E-13,  avg # of iterations =  1.0

     total cpu time spent up to now is       37.7 secs

     total energy              =    -926.01473093 Ry
     estimated scf accuracy    <          2.0E-10 Ry

     iteration # 43     ecut=    80.00 Ry     beta= 0.70
     Davidson diagonalization with overlap
     ethr =  1.00E-13,  avg # of iterations =  1.0

     total cpu time spent up to now is       38.3 secs

     total energy              =    -926.01473093 Ry
     estimated scf accuracy    <          2.3E-10 Ry

     iteration # 44     ecut=    80.00 Ry     beta= 0.70
     Davidson diagonalization with overlap
     ethr =  1.00E-13,  avg # of iterations =  1.0

     total cpu time spent up to now is       38.8 secs

     total energy              =    -926.01473093 Ry
     estimated scf accuracy    <          1.7E-10 Ry

     iteration # 45     ecut=    80.00 Ry     beta= 0.70
     Davidson diagonalization with overlap
     ethr =  1.00E-13,  avg # of iterations =  1.0

     total cpu time spent up to now is       39.4 secs

     total energy              =    -926.01473093 Ry
     estimated scf accuracy    <          1.3E-10 Ry

     iteration # 46     ecut=    80.00 Ry     beta= 0.70
     Davidson diagonalization with overlap
     ethr =  1.00E-13,  avg # of iterations =  1.0

     total cpu time spent up to now is       40.0 secs

     total energy              =    -926.01473093 Ry
     estimated scf accuracy    <          8.8E-11 Ry

     iteration # 47     ecut=    80.00 Ry     beta= 0.70
     Davidson diagonalization with overlap
     ethr =  1.00E-13,  avg # of iterations =  5.0

     total cpu time spent up to now is       40.7 secs

     total energy              =    -926.01473093 Ry
     estimated scf accuracy    <          4.7E-12 Ry

     iteration # 48     ecut=    80.00 Ry     beta= 0.70
     Davidson diagonalization with overlap
     ethr =  1.00E-13,  avg # of iterations =  5.0

     total cpu time spent up to now is       41.5 secs

     total energy              =    -926.01473093 Ry
     estimated scf accuracy    <          8.5E-11 Ry

     iteration # 49     ecut=    80.00 Ry     beta= 0.70
     Davidson diagonalization with overlap
     ethr =  1.00E-13,  avg # of iterations =  1.0

     total cpu time spent up to now is       42.1 secs

     total energy              =    -926.01473093 Ry
     estimated scf accuracy    <          1.0E-10 Ry

     iteration # 50     ecut=    80.00 Ry     beta= 0.70
     Davidson diagonalization with overlap
     ethr =  1.00E-13,  avg # of iterations =  1.0

     total cpu time spent up to now is       42.7 secs

     total energy              =    -926.01473093 Ry
     estimated scf accuracy    <          9.1E-11 Ry

     iteration # 51     ecut=    80.00 Ry     beta= 0.70
     Davidson diagonalization with overlap
     ethr =  1.00E-13,  avg # of iterations =  1.0

     total cpu time spent up to now is       43.3 secs

     total energy              =    -926.01473093 Ry
     estimated scf accuracy    <          4.6E-11 Ry

     iteration # 52     ecut=    80.00 Ry     beta= 0.70
     Davidson diagonalization with overlap
     ethr =  1.00E-13,  avg # of iterations =  1.0

     total cpu time spent up to now is       43.9 secs

     total energy              =    -926.01473093 Ry
     estimated scf accuracy    <          5.6E-11 Ry

     iteration # 53     ecut=    80.00 Ry     beta= 0.70
     Davidson diagonalization with overlap
     ethr =  1.00E-13,  avg # of iterations =  1.0

     total cpu time spent up to now is       44.5 secs

     total energy              =    -926.01473093 Ry
     estimated scf accuracy    <          5.5E-11 Ry

     iteration # 54     ecut=    80.00 Ry     beta= 0.70
     Davidson diagonalization with overlap
     ethr =  1.00E-13,  avg # of iterations =  1.0

     total cpu time spent up to now is       45.0 secs

     total energy              =    -926.01473093 Ry
     estimated scf accuracy    <          2.0E-11 Ry

     iteration # 55     ecut=    80.00 Ry     beta= 0.70
     Davidson diagonalization with overlap
     ethr =  1.00E-13,  avg # of iterations =  1.0

     total cpu time spent up to now is       45.6 secs

     total energy              =    -926.01473093 Ry
     estimated scf accuracy    <          2.2E-11 Ry

     iteration # 56     ecut=    80.00 Ry     beta= 0.70
     Davidson diagonalization with overlap
     ethr =  1.00E-13,  avg # of iterations =  1.0

     total cpu time spent up to now is       46.2 secs

     total energy              =    -926.01473093 Ry
     estimated scf accuracy    <          1.2E-11 Ry

     iteration # 57     ecut=    80.00 Ry     beta= 0.70
     Davidson diagonalization with overlap
     ethr =  1.00E-13,  avg # of iterations =  1.0

     total cpu time spent up to now is       46.8 secs

     total energy              =    -926.01473093 Ry
     estimated scf accuracy    <          1.6E-12 Ry

     iteration # 58     ecut=    80.00 Ry     beta= 0.70
     Davidson diagonalization with overlap
     ethr =  1.00E-13,  avg # of iterations =  1.0

     total cpu time spent up to now is       47.3 secs

     End of self-consistent calculation

          k = 0.0000 0.0000 0.0000 ( 15985 PWs)   bands (ev):

   -61.0340 -61.0322 -61.0249 -61.0232 -35.0111 -35.0089 -35.0015 -34.9970
   -34.9285 -34.8814 -34.8636 -34.8337 -34.8315 -34.8182 -34.8047 -34.8025
   -14.2466 -14.1330 -13.2611 -13.1184 -13.0488 -13.0414 -12.6911 -12.6851
   -12.5572 -12.5516  -1.1004  -1.0897  -1.0188  -0.9126  -0.8124  -0.4073
     0.2416   0.3325   0.5118   0.5934   0.7283   0.7707   0.8879   0.9362
     0.9952   1.0224   1.2915   1.3294   1.4248   1.4807   1.5858   1.5993
     1.7942   2.0288   2.1601   2.1886   2.2985   2.4793   2.4800   2.5758

          k = 0.0000 0.2545 0.0000 ( 15969 PWs)   bands (ev):

   -61.0339 -61.0322 -61.0249 -61.0232 -35.0118 -35.0095 -35.0030 -34.9984
   -34.9283 -34.8812 -34.8635 -34.8336 -34.8314 -34.8182 -34.8047 -34.8025
   -14.2003 -14.0946 -13.2168 -13.1007 -13.0476 -13.0260 -12.7070 -12.6817
   -12.5615 -12.5317  -1.1292  -1.1180  -1.0423  -0.9440  -0.9138  -0.5662
    -0.4268  -0.1928  -0.1531  -0.0178   0.4293   0.5510   0.6076   0.9714
     1.0843   1.2913   1.4467   1.4605   1.6000   1.6710   1.7979   1.8889
     2.1551   2.1634   2.1711   2.3386   2.3896   2.5836   2.6598   2.7379

          k = 0.3333 0.0000 0.0000 ( 15991 PWs)   bands (ev):

   -61.0303 -61.0285 -61.0258 -61.0240 -35.0056 -35.0035 -34.9999 -34.9964
   -34.9252 -34.9021 -34.8887 -34.8805 -34.8432 -34.8372 -34.8242 -34.8164
   -13.7214 -13.5939 -13.1703 -13.0135 -13.0090 -12.9998 -12.6342 -12.6340
   -12.5991 -12.5750  -1.5612  -1.4898  -0.8158  -0.7610  -0.7204  -0.3518
    -0.2567   0.1045   0.1204   0.4049   0.4210   0.4661   0.7877   0.9056
     0.9530   0.9847   0.9965   1.0877   1.2426   1.2579   1.4378   1.4781
     1.5382   1.9236   2.2214   2.2925   2.4160   2.5674   2.7579   2.7827

          k = 0.3333 0.2545 0.0000 ( 15931 PWs)   bands (ev):

   -61.0303 -61.0285 -61.0258 -61.0240 -35.0065 -35.0044 -35.0011 -34.9977
   -34.9251 -34.9020 -34.8886 -34.8804 -34.8432 -34.8372 -34.8242 -34.8164
   -13.6809 -13.5654 -13.1390 -13.0115 -12.9998 -12.9865 -12.6439 -12.6236
   -12.5711 -12.5480  -1.5595  -1.4869  -0.8525  -0.8160  -0.7901  -0.4496
    -0.4043  -0.2873  -0.1832  -0.0178   0.0504   0.1961   0.5441   0.5867
     0.6542   0.7350   0.8230   0.9170   0.9918   1.4400   1.6709   1.8421
     2.0560   2.1251   2.4391   2.6607   2.6719   2.8040   2.8910   2.9054

     highest occupied level (ev):     2.9054

!    total energy              =    -926.01473093 Ry
     estimated scf accuracy    <          8.0E-13 Ry

     The total energy is the sum of the following terms:
     one-electron contribution =    -627.70040431 Ry
     hartree contribution      =     350.59489183 Ry
     xc contribution           =    -178.13615805 Ry
     ewald contribution        =    -470.77306039 Ry

     convergence has been achieved in  58 iterations

     Writing output data file outdir/v2o5.save/

     init_run     :      3.80s CPU      3.89s WALL (       1 calls)
     electrons    :     39.46s CPU     43.42s WALL (       1 calls)

     Called by init_run:
     wfcinit      :      0.21s CPU      0.22s WALL (       1 calls)
     potinit      :      3.08s CPU      3.14s WALL (       1 calls)
     hinit0       :      0.35s CPU      0.36s WALL (       1 calls)

     Called by electrons:
     c_bands      :     28.76s CPU     29.23s WALL (      58 calls)
     sum_band     :      1.82s CPU      1.89s WALL (      58 calls)
     v_of_rho     :     11.23s CPU     14.65s WALL (      59 calls)
     mix_rho      :      0.26s CPU      0.27s WALL (      58 calls)
     vdW_kernel   :      2.60s CPU      2.61s WALL (       1 calls)

     Called by c_bands:
     init_us_2    :      0.30s CPU      0.31s WALL (     468 calls)
     cegterg      :     27.90s CPU     28.35s WALL (     232 calls)

     Called by *egterg:
     cdiaghg      :      4.13s CPU      4.14s WALL (    1040 calls)
     h_psi        :     16.00s CPU     16.43s WALL (    1044 calls)
     g_psi        :      0.05s CPU      0.05s WALL (     808 calls)

     Called by h_psi:
     h_psi:calbec :      4.88s CPU      5.04s WALL (    1044 calls)
     vloc_psi     :      7.40s CPU      7.65s WALL (    1044 calls)
     add_vuspsi   :      3.60s CPU      3.61s WALL (    1044 calls)

     General routines
     calbec       :      4.88s CPU      5.04s WALL (    1044 calls)
     fft          :      4.54s CPU      5.35s WALL (    3656 calls)
     ffts         :      0.03s CPU      0.04s WALL (     117 calls)
     fftw         :      8.26s CPU      8.54s WALL (   82286 calls)
     interpolate  :      0.07s CPU      0.09s WALL (      59 calls)

     Parallel routines
     fft_scatt_xy :      0.76s CPU      0.81s WALL (   86059 calls)
     fft_scatt_yz :      7.27s CPU      7.99s WALL (   86059 calls)

     PWSCF        :     43.42s CPU     47.59s WALL


   This run was terminated on:  19:18:23  13Oct2024            

=------------------------------------------------------------------------------=
   JOB DONE.
=------------------------------------------------------------------------------=
