
     Program PWSCF v.6.4.1 starts on 19May2024 at  1:55:54 

     This program is part of the open-source Quantum ESPRESSO suite
     for quantum simulation of materials; please cite
         "P. Giannozzi et al., J. Phys.:Condens. Matter 21 395502 (2009);
         "P. Giannozzi et al., J. Phys.:Condens. Matter 29 465901 (2017);
          URL http://www.quantum-espresso.org", 
     in publications or presentations arising from this work. More details at
     http://www.quantum-espresso.org/quote

     Parallel version (MPI), running on    32 processors

     MPI processes distributed on     1 nodes
     R & G space division:  proc/nbgrp/npool/nimage =      32
     Reading input from v2o5.vc.in
Warning: card O       -0.000000000   0.048914545   0.643203052 ignored

     Current dimensions of program PWSCF are:
     Max number of different atomic species (ntypx) = 10
     Max number of k-points (npk) =  40000
     Max angular momentum in pseudopotentials (lmaxx) =  3

     IMPORTANT: XC functional enforced from input :
     Exchange-correlation      = VDW-DF ( 1  4  4  0 1 0)
     Any further DFT definition will be discarded
     Please, verify this is what you really want


     Subspace diagonalization in iterative solution of the eigenvalue problem:
     one sub-group per band group will be used
     ELPA distributed-memory algorithm (size of sub-group:  4*  4 procs)


     Parallelization info
     --------------------
     sticks:   dense  smooth     PW     G-vecs:    dense   smooth      PW
     Min          38      38     10                 2914     2914     414
     Max          39      39     11                 2931     2931     425
     Sum        1243    1243    333                93591    93591   13375



     bravais-lattice index     =            8
     lattice parameter (alat)  =       6.7676  a.u.
     unit-cell volume          =    1320.1235 (a.u.)^3
     number of atoms/cell      =           14
     number of atomic types    =            2
     number of electrons       =       112.00
     number of Kohn-Sham states=           56
     kinetic-energy cutoff     =      65.0000  Ry
     charge density cutoff     =     260.0000  Ry
     convergence threshold     =      1.0E-10
     mixing beta               =       0.7000
     number of iterations used =            8  plain     mixing
     Exchange-correlation      = VDW-DF ( 1  4  4  0 1 0)
     nstep                     =          500


     celldm(1)=   6.767583  celldm(2)=   1.308375  celldm(3)=   3.255230
     celldm(4)=   0.000000  celldm(5)=   0.000000  celldm(6)=   0.000000

     crystal axes: (cart. coord. in units of alat)
               a(1) = (   1.000000   0.000000   0.000000 )  
               a(2) = (   0.000000   1.308375   0.000000 )  
               a(3) = (   0.000000   0.000000   3.255230 )  

     reciprocal axes: (cart. coord. in units 2 pi/alat)
               b(1) = (  1.000000  0.000000  0.000000 )  
               b(2) = (  0.000000  0.764307  0.000000 )  
               b(3) = (  0.000000  0.000000  0.307198 )  


     PseudoPot. # 1 for V  read from file:
     /home/mpicuntureo/pseudos/v.nc.upf
     MD5 check sum: 40fb93c06b4f9d8c28c5ccd071294a04
     Pseudo is Norm-conserving + core correction, Zval = 13.0
     Generated using ONCVPSP code by D. R. Hamann
     Using radial grid of 1536 points,  6 beta functions with: 
                l(1) =   0
                l(2) =   0
                l(3) =   1
                l(4) =   1
                l(5) =   2
                l(6) =   2

     PseudoPot. # 2 for O  read from file:
     /home/mpicuntureo/pseudos/o.nc.upf
     MD5 check sum: 3e3f909f7470e8921608ab6b1f57bbae
     Pseudo is Norm-conserving + core correction, Zval =  6.0
     Generated using ONCVPSP code by D. R. Hamann
     Using radial grid of  936 points,  5 beta functions with: 
                l(1) =   0
                l(2) =   0
                l(3) =   1
                l(4) =   1
                l(5) =   2

     vdW kernel table read from file vdW_kernel_table
     MD5 check sum: 8c4337f4b28e1601c069d7ef7b6561bc

     atomic species   valence    mass     pseudopotential
        V             13.00    50.94150     V ( 1.00)
        O              6.00    15.99940     O ( 1.00)

      8 Sym. Ops., with inversion, found ( 4 have fractional translation)



   Cartesian axes

     site n.     atom                  positions (alat units)
         1           V   tau(   1) = (   0.0000000   0.5083212   2.1085108  )
         2           V   tau(   2) = (   0.5000000   0.8000533   2.7743339  )
         3           V   tau(   3) = (   0.5000000   0.8000533   0.4808959  )
         4           V   tau(   4) = (   0.0000000   0.5083212   1.1467190  )
         5           O   tau(   5) = (   0.5000000   0.6458297   2.2175314  )
         6           O   tau(   6) = (   0.0000000   0.6625449   2.6653133  )
         7           O   tau(   7) = (   0.0000000   0.6625449   0.5899165  )
         8           O   tau(   8) = (   0.5000000   0.6458297   1.0376984  )
         9           O   tau(   9) = (   0.0000000   0.0639985   1.1614561  )
        10           O   tau(  10) = (   0.5000000   1.2443760   0.4661588  )
        11           O   tau(  11) = (   0.5000000   1.2443760   2.7890710  )
        12           O   tau(  12) = (   0.5000000   0.6549630   0.0000000  )
        13           O   tau(  13) = (   0.0000000   0.6534115   1.6276149  )
        14           O   tau(  14) = (   0.0000000   0.0639985   2.0937737  )

     number of k points=     4
                       cart. coord. in units 2pi/alat
        k(    1) = (   0.0000000   0.0000000   0.0000000), wk =   0.2222222
        k(    2) = (   0.0000000   0.2547691   0.0000000), wk =   0.4444444
        k(    3) = (   0.3333333   0.0000000   0.0000000), wk =   0.4444444
        k(    4) = (   0.3333333   0.2547691   0.0000000), wk =   0.8888889

     Dense  grid:    93591 G-vectors     FFT dimensions: (  36,  45, 120)

     Estimated max dynamical RAM per process >      12.83 MB

     Estimated total dynamical RAM >     410.43 MB

     Check: negative core charge=   -0.000017

     Initial potential from superposition of free atoms

     starting charge  111.99579, renormalised to  112.00000


     %%%%%%%%%%%%%%%%%%%%%%%%%%%%%%%%%%%%%%%%%%%%%%%%%%%%%%%%%%%%%%%%%%%%%%%%
     %                                                                      %
     % You are using vdW-DF, which was implemented by the Thonhauser group. %
     % Please cite the following two papers that made this development      %
     % possible and the two reviews that describe the various versions:     %
     %                                                                      %
     %   T. Thonhauser et al., PRL 115, 136402 (2015).                      %
     %   T. Thonhauser et al., PRB 76, 125112 (2007).                       %
     %   K. Berland et al., Rep. Prog. Phys. 78, 066501 (2015).             %
     %   D.C. Langreth et al., J. Phys.: Condens. Matter 21, 084203 (2009). %
     %                                                                      %
     %                                                                      %
     % If you are calculating the stress with vdW-DF, please also cite:     %
     %                                                                      %
     %   R. Sabatini et al., J. Phys.: Condens. Matter 24, 424209 (2012).   %
     %                                                                      %
     %%%%%%%%%%%%%%%%%%%%%%%%%%%%%%%%%%%%%%%%%%%%%%%%%%%%%%%%%%%%%%%%%%%%%%%%


     Starting wfcs are   80 randomized atomic wfcs

     total cpu time spent up to now is        1.0 secs

     Self-consistent Calculation

     iteration #  1     ecut=    65.00 Ry     beta= 0.70
     Davidson diagonalization with overlap
     ethr =  1.00E-02,  avg # of iterations =  2.0

     total cpu time spent up to now is        1.4 secs

     total energy              =    -920.59134730 Ry
     Harris-Foulkes estimate   =    -927.62603921 Ry
     estimated scf accuracy    <       8.80530029 Ry

     iteration #  2     ecut=    65.00 Ry     beta= 0.70
     Davidson diagonalization with overlap
     ethr =  7.86E-03,  avg # of iterations =  6.2

     total cpu time spent up to now is        2.4 secs

     total energy              =    -910.99081627 Ry
     Harris-Foulkes estimate   =    -945.30537322 Ry
     estimated scf accuracy    <     152.97712105 Ry

     iteration #  3     ecut=    65.00 Ry     beta= 0.70
     Davidson diagonalization with overlap
     ethr =  7.86E-03,  avg # of iterations =  5.8

     total cpu time spent up to now is        3.3 secs

     total energy              =    -925.65365173 Ry
     Harris-Foulkes estimate   =    -926.60746725 Ry
     estimated scf accuracy    <       3.01947480 Ry

     iteration #  4     ecut=    65.00 Ry     beta= 0.70
     Davidson diagonalization with overlap
     ethr =  2.70E-03,  avg # of iterations =  4.0

     total cpu time spent up to now is        3.8 secs

     total energy              =    -925.90659252 Ry
     Harris-Foulkes estimate   =    -926.05604998 Ry
     estimated scf accuracy    <       0.88536331 Ry

     iteration #  5     ecut=    65.00 Ry     beta= 0.70
     Davidson diagonalization with overlap
     ethr =  7.91E-04,  avg # of iterations =  3.2

     total cpu time spent up to now is        4.2 secs

     total energy              =    -925.82177185 Ry
     Harris-Foulkes estimate   =    -925.96777022 Ry
     estimated scf accuracy    <       0.49027087 Ry

     iteration #  6     ecut=    65.00 Ry     beta= 0.70
     Davidson diagonalization with overlap
     ethr =  4.38E-04,  avg # of iterations =  4.0

     total cpu time spent up to now is        4.8 secs

     total energy              =    -925.97987461 Ry
     Harris-Foulkes estimate   =    -925.99700047 Ry
     estimated scf accuracy    <       0.28179192 Ry

     iteration #  7     ecut=    65.00 Ry     beta= 0.70
     Davidson diagonalization with overlap
     ethr =  2.52E-04,  avg # of iterations =  1.0

     total cpu time spent up to now is        5.1 secs

     total energy              =    -925.93851783 Ry
     Harris-Foulkes estimate   =    -925.98200297 Ry
     estimated scf accuracy    <       0.23613858 Ry

     iteration #  8     ecut=    65.00 Ry     beta= 0.70
     Davidson diagonalization with overlap
     ethr =  2.11E-04,  avg # of iterations =  3.2

     total cpu time spent up to now is        5.5 secs

     total energy              =    -925.94835657 Ry
     Harris-Foulkes estimate   =    -925.95652881 Ry
     estimated scf accuracy    <       0.03971131 Ry

     iteration #  9     ecut=    65.00 Ry     beta= 0.70
     Davidson diagonalization with overlap
     ethr =  3.55E-05,  avg # of iterations =  4.5

     total cpu time spent up to now is        6.1 secs

     total energy              =    -925.96266272 Ry
     Harris-Foulkes estimate   =    -925.96505958 Ry
     estimated scf accuracy    <       0.01333879 Ry

     iteration # 10     ecut=    65.00 Ry     beta= 0.70
     Davidson diagonalization with overlap
     ethr =  1.19E-05,  avg # of iterations =  3.2

     total cpu time spent up to now is        6.5 secs

     total energy              =    -925.96189462 Ry
     Harris-Foulkes estimate   =    -925.96312497 Ry
     estimated scf accuracy    <       0.00616994 Ry

     iteration # 11     ecut=    65.00 Ry     beta= 0.70
     Davidson diagonalization with overlap
     ethr =  5.51E-06,  avg # of iterations =  4.0

     total cpu time spent up to now is        7.1 secs

     total energy              =    -925.96340326 Ry
     Harris-Foulkes estimate   =    -925.96369205 Ry
     estimated scf accuracy    <       0.00180043 Ry

     iteration # 12     ecut=    65.00 Ry     beta= 0.70
     Davidson diagonalization with overlap
     ethr =  1.61E-06,  avg # of iterations =  1.5

     total cpu time spent up to now is        7.4 secs

     total energy              =    -925.96326255 Ry
     Harris-Foulkes estimate   =    -925.96345158 Ry
     estimated scf accuracy    <       0.00099230 Ry

     iteration # 13     ecut=    65.00 Ry     beta= 0.70
     Davidson diagonalization with overlap
     ethr =  8.86E-07,  avg # of iterations =  4.0

     total cpu time spent up to now is        8.0 secs

     total energy              =    -925.96349053 Ry
     Harris-Foulkes estimate   =    -925.96354065 Ry
     estimated scf accuracy    <       0.00033118 Ry

     iteration # 14     ecut=    65.00 Ry     beta= 0.70
     Davidson diagonalization with overlap
     ethr =  2.96E-07,  avg # of iterations =  1.0

     total cpu time spent up to now is        8.3 secs

     total energy              =    -925.96345613 Ry
     Harris-Foulkes estimate   =    -925.96349737 Ry
     estimated scf accuracy    <       0.00020307 Ry

     iteration # 15     ecut=    65.00 Ry     beta= 0.70
     Davidson diagonalization with overlap
     ethr =  1.81E-07,  avg # of iterations =  4.0

     total cpu time spent up to now is        8.9 secs

     total energy              =    -925.96349365 Ry
     Harris-Foulkes estimate   =    -925.96350101 Ry
     estimated scf accuracy    <       0.00002117 Ry

     iteration # 16     ecut=    65.00 Ry     beta= 0.70
     Davidson diagonalization with overlap
     ethr =  1.89E-08,  avg # of iterations =  5.0

     total cpu time spent up to now is        9.5 secs

     total energy              =    -925.96349807 Ry
     Harris-Foulkes estimate   =    -925.96349841 Ry
     estimated scf accuracy    <       0.00000201 Ry

     iteration # 17     ecut=    65.00 Ry     beta= 0.70
     Davidson diagonalization with overlap
     ethr =  1.80E-09,  avg # of iterations =  4.2

     total cpu time spent up to now is       10.1 secs

     total energy              =    -925.96349846 Ry
     Harris-Foulkes estimate   =    -925.96349866 Ry
     estimated scf accuracy    <       0.00000211 Ry

     iteration # 18     ecut=    65.00 Ry     beta= 0.70
     Davidson diagonalization with overlap
     ethr =  1.80E-09,  avg # of iterations =  1.0

     total cpu time spent up to now is       10.4 secs

     total energy              =    -925.96349818 Ry
     Harris-Foulkes estimate   =    -925.96349849 Ry
     estimated scf accuracy    <       0.00000163 Ry

     iteration # 19     ecut=    65.00 Ry     beta= 0.70
     Davidson diagonalization with overlap
     ethr =  1.45E-09,  avg # of iterations =  3.5

     total cpu time spent up to now is       10.9 secs

     total energy              =    -925.96349834 Ry
     Harris-Foulkes estimate   =    -925.96349836 Ry
     estimated scf accuracy    <       0.00000008 Ry

     iteration # 20     ecut=    65.00 Ry     beta= 0.70
     Davidson diagonalization with overlap
     ethr =  7.00E-11,  avg # of iterations =  5.2

     total cpu time spent up to now is       11.6 secs

     total energy              =    -925.96349839 Ry
     Harris-Foulkes estimate   =    -925.96349840 Ry
     estimated scf accuracy    <       0.00000006 Ry

     iteration # 21     ecut=    65.00 Ry     beta= 0.70
     Davidson diagonalization with overlap
     ethr =  5.15E-11,  avg # of iterations =  1.5

     total cpu time spent up to now is       12.0 secs

     total energy              =    -925.96349838 Ry
     Harris-Foulkes estimate   =    -925.96349839 Ry
     estimated scf accuracy    <       0.00000002 Ry

     iteration # 22     ecut=    65.00 Ry     beta= 0.70
     Davidson diagonalization with overlap
     ethr =  2.06E-11,  avg # of iterations =  4.0

     total cpu time spent up to now is       12.6 secs

     total energy              =    -925.96349839 Ry
     Harris-Foulkes estimate   =    -925.96349839 Ry
     estimated scf accuracy    <       0.00000002 Ry

     iteration # 23     ecut=    65.00 Ry     beta= 0.70
     Davidson diagonalization with overlap
     ethr =  1.64E-11,  avg # of iterations =  1.0

     total cpu time spent up to now is       12.9 secs

     total energy              =    -925.96349839 Ry
     Harris-Foulkes estimate   =    -925.96349839 Ry
     estimated scf accuracy    <       0.00000001 Ry

     iteration # 24     ecut=    65.00 Ry     beta= 0.70
     Davidson diagonalization with overlap
     ethr =  1.03E-11,  avg # of iterations =  3.5

     total cpu time spent up to now is       13.4 secs

     total energy              =    -925.96349839 Ry
     Harris-Foulkes estimate   =    -925.96349839 Ry
     estimated scf accuracy    <          3.8E-10 Ry

     iteration # 25     ecut=    65.00 Ry     beta= 0.70
     Davidson diagonalization with overlap
     ethr =  3.40E-13,  avg # of iterations =  5.5

     total cpu time spent up to now is       14.1 secs

     End of self-consistent calculation

          k = 0.0000 0.0000 0.0000 ( 11727 PWs)   bands (ev):

   -61.0460 -61.0442 -61.0365 -61.0343 -35.0265 -35.0243 -35.0169 -35.0124
   -34.9455 -34.8987 -34.8806 -34.8511 -34.8489 -34.8356 -34.8221 -34.8199
   -14.2468 -14.1334 -13.2613 -13.1181 -13.0496 -13.0431 -12.6927 -12.6870
   -12.5565 -12.5507  -1.0926  -1.0828  -1.0136  -0.9047  -0.8060  -0.4014
     0.2534   0.3428   0.5265   0.6066   0.7419   0.7866   0.8992   0.9440
     1.0051   1.0338   1.2984   1.3359   1.4328   1.4876   1.5922   1.6070
     1.8014   2.0354   2.1710   2.1985   2.3127   2.4908   2.4938   2.5844

          k = 0.0000 0.2548 0.0000 ( 11689 PWs)   bands (ev):

   -61.0456 -61.0439 -61.0362 -61.0347 -35.0272 -35.0250 -35.0184 -35.0138
   -34.9453 -34.8985 -34.8806 -34.8510 -34.8488 -34.8356 -34.8221 -34.8199
   -14.1999 -14.0944 -13.2177 -13.1009 -13.0484 -13.0280 -12.7083 -12.6835
   -12.5596 -12.5304  -1.1225  -1.1116  -1.0369  -0.9359  -0.9082  -0.5589
    -0.4219  -0.1861  -0.1448  -0.0097   0.4388   0.5642   0.6206   0.9864
     1.0914   1.2995   1.4547   1.4727   1.6109   1.6815   1.8070   1.9027
     2.1635   2.1707   2.1805   2.3502   2.4005   2.5955   2.6702   2.7514

          k = 0.3333 0.0000 0.0000 ( 11680 PWs)   bands (ev):

   -61.0414 -61.0403 -61.0371 -61.0352 -35.0211 -35.0190 -35.0153 -35.0119
   -34.9423 -34.9193 -34.9059 -34.8978 -34.8604 -34.8544 -34.8415 -34.8337
   -13.7218 -13.5944 -13.1715 -13.0137 -13.0092 -13.0015 -12.6351 -12.6351
   -12.5989 -12.5749  -1.5557  -1.4849  -0.8108  -0.7520  -0.7156  -0.3410
    -0.2480   0.1102   0.1294   0.4152   0.4279   0.4763   0.7999   0.9164
     0.9611   0.9963   1.0126   1.1006   1.2543   1.2643   1.4462   1.4889
     1.5477   1.9340   2.2313   2.3031   2.4260   2.5800   2.7688   2.7921

          k = 0.3333 0.2548 0.0000 ( 11661 PWs)   bands (ev):

   -61.0415 -61.0397 -61.0374 -61.0349 -35.0219 -35.0198 -35.0166 -35.0131
   -34.9421 -34.9192 -34.9058 -34.8976 -34.8603 -34.8544 -34.8415 -34.8338
   -13.6808 -13.5654 -13.1404 -13.0118 -13.0005 -12.9884 -12.6444 -12.6246
   -12.5701 -12.5476  -1.5546  -1.4819  -0.8482  -0.8069  -0.7864  -0.4447
    -0.3933  -0.2792  -0.1770  -0.0094   0.0585   0.2023   0.5528   0.5958
     0.6596   0.7423   0.8312   0.9285   1.0035   1.4485   1.6854   1.8546
     2.0704   2.1378   2.4513   2.6727   2.6816   2.8171   2.9013   2.9186

     highest occupied level (ev):     2.9186

!    total energy              =    -925.96349839 Ry
     Harris-Foulkes estimate   =    -925.96349839 Ry
     estimated scf accuracy    <          6.9E-11 Ry

     The total energy is the sum of the following terms:

     one-electron contribution =    -627.03155513 Ry
     hartree contribution      =     350.25290485 Ry
     xc contribution           =    -178.10813750 Ry
     ewald contribution        =    -471.07671061 Ry

     convergence has been achieved in  25 iterations

     Forces acting on atoms (cartesian axes, Ry/au):

     atom    1 type  1   force =    -0.00000000    0.00010231   -0.00044987
     atom    2 type  1   force =     0.00000000   -0.00010231    0.00044987
     atom    3 type  1   force =     0.00000000   -0.00010231   -0.00044987
     atom    4 type  1   force =    -0.00000000    0.00010231    0.00044987
     atom    5 type  2   force =    -0.00000000   -0.00029627   -0.00044478
     atom    6 type  2   force =     0.00000000    0.00029627    0.00044478
     atom    7 type  2   force =     0.00000000    0.00029627   -0.00044478
     atom    8 type  2   force =     0.00000000   -0.00029627    0.00044478
     atom    9 type  2   force =     0.00000000    0.00046755    0.00015618
     atom   10 type  2   force =     0.00000000   -0.00046755   -0.00015618
     atom   11 type  2   force =     0.00000000   -0.00046755    0.00015618
     atom   12 type  2   force =     0.00000000    0.00006665   -0.00000000
     atom   13 type  2   force =     0.00000000   -0.00006665   -0.00000000
     atom   14 type  2   force =     0.00000000    0.00046755   -0.00015618

     Total force =     0.001725     Total SCF correction =     0.000019


     Computing stress (Cartesian axis) and pressure

          total   stress  (Ry/bohr**3)                   (kbar)     P=  -52.92
  -0.00035321   0.00000000   0.00000000        -51.96      0.00      0.00
   0.00000000  -0.00038169   0.00000000          0.00    -56.15      0.00
   0.00000000   0.00000000  -0.00034426          0.00      0.00    -50.64


     BFGS Geometry Optimization

     number of scf cycles    =   1
     number of bfgs steps    =   0

     enthalpy new            =    -925.9634983904 Ry

     new trust radius        =       0.0693411271 bohr
     new conv_thr            =            1.0E-10 Ry

     new unit-cell volume =   1284.82669 a.u.^3 (   190.39167 Ang^3 )
     density =      3.17261 g/cm^3

CELL_PARAMETERS (alat=  6.76758343)
   0.991169637   0.000000000   0.000000000
   0.000000000   1.295889589   0.000000000
   0.000000000   0.000000000   3.227213556

ATOMIC_POSITIONS (crystal)
V       -0.000000000   0.388525106   0.647709821
V        0.500000007   0.611474908   0.852290201
V        0.500000007   0.611474908   0.147709813
V       -0.000000000   0.388525106   0.352290194
O        0.500000007   0.493578779   0.681200972
O        0.000000000   0.506421235   0.818799051
O        0.000000000   0.506421235   0.181200963
O        0.500000007   0.493578779   0.318799044
O        0.000000000   0.048967348   0.356804052
O        0.500000007   0.951032666   0.143195956
O        0.500000007   0.951032666   0.856804059
O        0.500000007   0.500600467  -0.000000000
O        0.000000000   0.499399547   0.500000007
O        0.000000000   0.048967348   0.643195963



     Writing output data file v2o5.save/
     NEW-OLD atomic charge density approx. for the potential

     Check: negative core charge=   -0.000014
     extrapolated charge  108.92324, renormalised to  112.00000

     total cpu time spent up to now is       15.3 secs

     Self-consistent Calculation

     iteration #  1     ecut=    65.00 Ry     beta= 0.70
     Davidson diagonalization with overlap
     ethr =  1.00E-06,  avg # of iterations = 17.0

     total cpu time spent up to now is       17.3 secs

     total energy              =    -919.20617440 Ry
     Harris-Foulkes estimate   =    -940.45911675 Ry
     estimated scf accuracy    <       7.03284797 Ry

     iteration #  2     ecut=    65.00 Ry     beta= 0.70
     Davidson diagonalization with overlap
     ethr =  6.28E-03,  avg # of iterations =  4.0

     total cpu time spent up to now is       18.1 secs

     total energy              =    -925.86093455 Ry
     Harris-Foulkes estimate   =    -937.89112625 Ry
     estimated scf accuracy    <      33.19857120 Ry

     iteration #  3     ecut=    65.00 Ry     beta= 0.70
     Davidson diagonalization with overlap
     ethr =  6.28E-03,  avg # of iterations =  3.2

     total cpu time spent up to now is       18.7 secs

     total energy              =    -925.96944811 Ry
     Harris-Foulkes estimate   =    -927.58700029 Ry
     estimated scf accuracy    <       8.18343522 Ry

     iteration #  4     ecut=    65.00 Ry     beta= 0.70
     Davidson diagonalization with overlap
     ethr =  6.28E-03,  avg # of iterations =  1.0

     total cpu time spent up to now is       19.0 secs

     total energy              =    -925.71364775 Ry
     Harris-Foulkes estimate   =    -926.12252412 Ry
     estimated scf accuracy    <       5.17796048 Ry

     iteration #  5     ecut=    65.00 Ry     beta= 0.70
     Davidson diagonalization with overlap
     ethr =  4.62E-03,  avg # of iterations =  1.0

     total cpu time spent up to now is       19.3 secs

     total energy              =    -925.49522365 Ry
     Harris-Foulkes estimate   =    -925.82909798 Ry
     estimated scf accuracy    <       3.87419749 Ry

     iteration #  6     ecut=    65.00 Ry     beta= 0.70
     Davidson diagonalization with overlap
     ethr =  3.46E-03,  avg # of iterations =  3.0

     total cpu time spent up to now is       19.7 secs

     total energy              =    -925.55881537 Ry
     Harris-Foulkes estimate   =    -925.66180034 Ry
     estimated scf accuracy    <       2.36835219 Ry

     iteration #  7     ecut=    65.00 Ry     beta= 0.70
     Davidson diagonalization with overlap
     ethr =  2.11E-03,  avg # of iterations =  4.2

     total cpu time spent up to now is       20.2 secs

     total energy              =    -925.88429573 Ry
     Harris-Foulkes estimate   =    -925.90171842 Ry
     estimated scf accuracy    <       0.29893348 Ry

     iteration #  8     ecut=    65.00 Ry     beta= 0.70
     Davidson diagonalization with overlap
     ethr =  2.67E-04,  avg # of iterations =  4.2

     total cpu time spent up to now is       20.7 secs

     total energy              =    -925.98750833 Ry
     Harris-Foulkes estimate   =    -925.97946782 Ry
     estimated scf accuracy    <       0.05628516 Ry

     iteration #  9     ecut=    65.00 Ry     beta= 0.70
     Davidson diagonalization with overlap
     ethr =  5.03E-05,  avg # of iterations =  2.0

     total cpu time spent up to now is       21.1 secs

     total energy              =    -926.01513445 Ry
     Harris-Foulkes estimate   =    -925.98906237 Ry
     estimated scf accuracy    <       0.07400538 Ry

     iteration # 10     ecut=    65.00 Ry     beta= 0.70
     Davidson diagonalization with overlap
     ethr =  5.03E-05,  avg # of iterations =  4.0

     total cpu time spent up to now is       21.7 secs

     total energy              =    -926.03658444 Ry
     Harris-Foulkes estimate   =    -926.04319703 Ry
     estimated scf accuracy    <       0.47308816 Ry

     iteration # 11     ecut=    65.00 Ry     beta= 0.70
     Davidson diagonalization with overlap
     ethr =  5.03E-05,  avg # of iterations =  4.0

     total cpu time spent up to now is       22.2 secs

     total energy              =    -925.98498655 Ry
     Harris-Foulkes estimate   =    -926.04896956 Ry
     estimated scf accuracy    <       0.55290046 Ry

     iteration # 12     ecut=    65.00 Ry     beta= 0.70
     Davidson diagonalization with overlap
     ethr =  5.03E-05,  avg # of iterations =  4.0

     total cpu time spent up to now is       22.8 secs

     total energy              =    -925.97413614 Ry
     Harris-Foulkes estimate   =    -925.99533704 Ry
     estimated scf accuracy    <       0.21849630 Ry

     iteration # 13     ecut=    65.00 Ry     beta= 0.70
     Davidson diagonalization with overlap
     ethr =  5.03E-05,  avg # of iterations =  3.0

     total cpu time spent up to now is       23.2 secs

     total energy              =    -925.96815971 Ry
     Harris-Foulkes estimate   =    -925.97667136 Ry
     estimated scf accuracy    <       0.14510125 Ry

     iteration # 14     ecut=    65.00 Ry     beta= 0.70
     Davidson diagonalization with overlap
     ethr =  5.03E-05,  avg # of iterations =  1.8

     total cpu time spent up to now is       23.5 secs

     total energy              =    -925.95456052 Ry
     Harris-Foulkes estimate   =    -925.96977917 Ry
     estimated scf accuracy    <       0.10788659 Ry

     iteration # 15     ecut=    65.00 Ry     beta= 0.70
     Davidson diagonalization with overlap
     ethr =  5.03E-05,  avg # of iterations =  4.8

     total cpu time spent up to now is       24.1 secs

     total energy              =    -925.96940792 Ry
     Harris-Foulkes estimate   =    -925.96941142 Ry
     estimated scf accuracy    <       0.00012553 Ry

     iteration # 16     ecut=    65.00 Ry     beta= 0.70
     Davidson diagonalization with overlap
     ethr =  1.12E-07,  avg # of iterations =  5.8

     total cpu time spent up to now is       25.0 secs

     total energy              =    -925.96958402 Ry
     Harris-Foulkes estimate   =    -925.96985808 Ry
     estimated scf accuracy    <       0.00103157 Ry

     iteration # 17     ecut=    65.00 Ry     beta= 0.70
     Davidson diagonalization with overlap
     ethr =  1.12E-07,  avg # of iterations =  5.0

     total cpu time spent up to now is       25.9 secs

     total energy              =    -925.96972594 Ry
     Harris-Foulkes estimate   =    -925.96974111 Ry
     estimated scf accuracy    <       0.00006100 Ry

     iteration # 18     ecut=    65.00 Ry     beta= 0.70
     Davidson diagonalization with overlap
     ethr =  5.45E-08,  avg # of iterations =  3.8

     total cpu time spent up to now is       26.6 secs

     total energy              =    -925.96972861 Ry
     Harris-Foulkes estimate   =    -925.96973001 Ry
     estimated scf accuracy    <       0.00001005 Ry

     iteration # 19     ecut=    65.00 Ry     beta= 0.70
     Davidson diagonalization with overlap
     ethr =  8.97E-09,  avg # of iterations =  4.0

     total cpu time spent up to now is       27.6 secs

     total energy              =    -925.96973425 Ry
     Harris-Foulkes estimate   =    -925.96973368 Ry
     estimated scf accuracy    <       0.00000748 Ry

     iteration # 20     ecut=    65.00 Ry     beta= 0.70
     Davidson diagonalization with overlap
     ethr =  6.68E-09,  avg # of iterations =  3.8

     total cpu time spent up to now is       28.3 secs

     total energy              =    -925.96973340 Ry
     Harris-Foulkes estimate   =    -925.96973469 Ry
     estimated scf accuracy    <       0.00001191 Ry

     iteration # 21     ecut=    65.00 Ry     beta= 0.70
     Davidson diagonalization with overlap
     ethr =  6.68E-09,  avg # of iterations =  1.0

     total cpu time spent up to now is       28.8 secs

     total energy              =    -925.96973116 Ry
     Harris-Foulkes estimate   =    -925.96973350 Ry
     estimated scf accuracy    <       0.00000892 Ry

     iteration # 22     ecut=    65.00 Ry     beta= 0.70
     Davidson diagonalization with overlap
     ethr =  6.68E-09,  avg # of iterations =  4.0

     total cpu time spent up to now is       29.7 secs

     total energy              =    -925.96973255 Ry
     Harris-Foulkes estimate   =    -925.96973288 Ry
     estimated scf accuracy    <       0.00000129 Ry

     iteration # 23     ecut=    65.00 Ry     beta= 0.70
     Davidson diagonalization with overlap
     ethr =  1.16E-09,  avg # of iterations =  4.0

     total cpu time spent up to now is       30.5 secs

     total energy              =    -925.96973270 Ry
     Harris-Foulkes estimate   =    -925.96973272 Ry
     estimated scf accuracy    <       0.00000007 Ry

     iteration # 24     ecut=    65.00 Ry     beta= 0.70
     Davidson diagonalization with overlap
     ethr =  5.88E-11,  avg # of iterations =  4.2

     total cpu time spent up to now is       31.6 secs

     total energy              =    -925.96973273 Ry
     Harris-Foulkes estimate   =    -925.96973274 Ry
     estimated scf accuracy    <       0.00000002 Ry

     iteration # 25     ecut=    65.00 Ry     beta= 0.70
     Davidson diagonalization with overlap
     ethr =  1.79E-11,  avg # of iterations =  1.2

     total cpu time spent up to now is       32.1 secs

     total energy              =    -925.96973273 Ry
     Harris-Foulkes estimate   =    -925.96973274 Ry
     estimated scf accuracy    <       0.00000002 Ry

     iteration # 26     ecut=    65.00 Ry     beta= 0.70
     Davidson diagonalization with overlap
     ethr =  1.66E-11,  avg # of iterations =  2.5

     total cpu time spent up to now is       32.7 secs

     total energy              =    -925.96973273 Ry
     Harris-Foulkes estimate   =    -925.96973273 Ry
     estimated scf accuracy    <       0.00000002 Ry

     iteration # 27     ecut=    65.00 Ry     beta= 0.70
     Davidson diagonalization with overlap
     ethr =  1.36E-11,  avg # of iterations =  2.5

     total cpu time spent up to now is       33.3 secs

     total energy              =    -925.96973273 Ry
     Harris-Foulkes estimate   =    -925.96973273 Ry
     estimated scf accuracy    <          5.2E-09 Ry

     iteration # 28     ecut=    65.00 Ry     beta= 0.70
     Davidson diagonalization with overlap
     ethr =  4.64E-12,  avg # of iterations =  4.0

     total cpu time spent up to now is       34.2 secs

     total energy              =    -925.96973273 Ry
     Harris-Foulkes estimate   =    -925.96973273 Ry
     estimated scf accuracy    <          6.4E-10 Ry

     iteration # 29     ecut=    65.00 Ry     beta= 0.70
     Davidson diagonalization with overlap
     ethr =  5.69E-13,  avg # of iterations =  3.5

     total cpu time spent up to now is       35.0 secs

     total energy              =    -925.96973273 Ry
     Harris-Foulkes estimate   =    -925.96973273 Ry
     estimated scf accuracy    <          7.5E-10 Ry

     iteration # 30     ecut=    65.00 Ry     beta= 0.70
     Davidson diagonalization with overlap
     ethr =  5.69E-13,  avg # of iterations =  1.0

     total cpu time spent up to now is       35.5 secs

     total energy              =    -925.96973273 Ry
     Harris-Foulkes estimate   =    -925.96973273 Ry
     estimated scf accuracy    <          4.0E-10 Ry

     iteration # 31     ecut=    65.00 Ry     beta= 0.70
     Davidson diagonalization with overlap
     ethr =  3.62E-13,  avg # of iterations =  4.2

     total cpu time spent up to now is       36.6 secs

     total energy              =    -925.96973273 Ry
     Harris-Foulkes estimate   =    -925.96973273 Ry
     estimated scf accuracy    <          1.4E-09 Ry

     iteration # 32     ecut=    65.00 Ry     beta= 0.70
     Davidson diagonalization with overlap
     ethr =  3.62E-13,  avg # of iterations =  1.0

     total cpu time spent up to now is       37.2 secs

     total energy              =    -925.96973273 Ry
     Harris-Foulkes estimate   =    -925.96973273 Ry
     estimated scf accuracy    <          1.0E-09 Ry

     iteration # 33     ecut=    65.00 Ry     beta= 0.70
     Davidson diagonalization with overlap
     ethr =  3.62E-13,  avg # of iterations =  4.0

     total cpu time spent up to now is       38.1 secs

     End of self-consistent calculation

          k = 0.0000 0.0000 0.0000 ( 11727 PWs)   bands (ev):

   -60.6812 -60.6792 -60.6706 -60.6682 -34.7055 -34.7031 -34.6951 -34.6902
   -34.5969 -34.5442 -34.5237 -34.4908 -34.4883 -34.4729 -34.4583 -34.4559
   -14.0542 -13.9351 -13.0158 -12.8892 -12.8174 -12.7847 -12.4168 -12.4096
   -12.2717 -12.2661  -0.8977  -0.8860  -0.8272  -0.7324  -0.5865  -0.1858
     0.4527   0.5353   0.7260   0.8221   0.9710   1.0164   1.1650   1.2057
     1.2791   1.3111   1.5222   1.5714   1.6637   1.7209   1.8360   1.8699
     2.0421   2.3028   2.4533   2.4815   2.5725   2.7529   2.7586   2.8627

          k = 0.0000 0.2572 0.0000 ( 11689 PWs)   bands (ev):

   -60.6809 -60.6789 -60.6703 -60.6685 -34.7063 -34.7039 -34.6969 -34.6920
   -34.5967 -34.5440 -34.5237 -34.4907 -34.4882 -34.4730 -34.4583 -34.4559
   -14.0046 -13.8938 -12.9699 -12.8716 -12.8156 -12.7688 -12.4312 -12.4040
   -12.2720 -12.2400  -0.9298  -0.9173  -0.8527  -0.7664  -0.7146  -0.3891
    -0.2051   0.0292   0.0466   0.1674   0.6786   0.7795   0.8382   1.2309
     1.3238   1.5240   1.6867   1.7557   1.8929   1.9257   2.0628   2.1669
     2.4504   2.4509   2.4568   2.6148   2.6654   2.8687   2.9502   3.0311

          k = 0.3363 0.0000 0.0000 ( 11680 PWs)   bands (ev):

   -60.6763 -60.6747 -60.6713 -60.6692 -34.6996 -34.6972 -34.6934 -34.6896
   -34.5931 -34.5671 -34.5527 -34.5433 -34.5014 -34.4949 -34.4800 -34.4710
   -13.5020 -13.3672 -12.9231 -12.7662 -12.7568 -12.7382 -12.3550 -12.3533
   -12.3138 -12.2904  -1.3778  -1.2972  -0.6024  -0.5717  -0.4946  -0.1255
    -0.0461   0.3136   0.3189   0.6076   0.6303   0.6718   1.0213   1.1454
     1.1885   1.2564   1.2731   1.3843   1.4897   1.5468   1.6880   1.7389
     1.7951   2.1921   2.4860   2.5747   2.6802   2.8415   3.0364   3.0748

          k = 0.3363 0.2572 0.0000 ( 11661 PWs)   bands (ev):

   -60.6764 -60.6743 -60.6715 -60.6689 -34.7006 -34.6982 -34.6949 -34.6911
   -34.5929 -34.5670 -34.5525 -34.5432 -34.5014 -34.4949 -34.4800 -34.4710
   -13.4586 -13.3364 -12.8922 -12.7641 -12.7453 -12.7246 -12.3620 -12.3392
   -12.2824 -12.2571  -1.3761  -1.2942  -0.6478  -0.6318  -0.5823  -0.2761
    -0.1825  -0.0918   0.0165   0.1816   0.2615   0.4209   0.8026   0.8091
     0.8894   0.9714   1.0750   1.1608   1.2447   1.6862   1.9300   2.1134
     2.3444   2.4183   2.7185   2.9406   2.9608   3.0927   3.1885   3.1940

     highest occupied level (ev):     3.1940

!    total energy              =    -925.96973273 Ry
     Harris-Foulkes estimate   =    -925.96973273 Ry
     estimated scf accuracy    <          3.5E-11 Ry

     The total energy is the sum of the following terms:

     one-electron contribution =    -620.45152900 Ry
     hartree contribution      =     348.24106482 Ry
     xc contribution           =    -178.35302395 Ry
     ewald contribution        =    -475.40624460 Ry

     convergence has been achieved in  33 iterations

     Forces acting on atoms (cartesian axes, Ry/au):

     atom    1 type  1   force =    -0.00000000    0.01978777    0.00480351
     atom    2 type  1   force =     0.00000000   -0.01978777   -0.00480351
     atom    3 type  1   force =     0.00000000   -0.01978777    0.00480351
     atom    4 type  1   force =    -0.00000000    0.01978777   -0.00480351
     atom    5 type  2   force =     0.00000000    0.00371466   -0.00310111
     atom    6 type  2   force =     0.00000000   -0.00371466    0.00310111
     atom    7 type  2   force =     0.00000000   -0.00371466   -0.00310111
     atom    8 type  2   force =     0.00000000    0.00371466    0.00310111
     atom    9 type  2   force =     0.00000000   -0.03160114    0.00139853
     atom   10 type  2   force =     0.00000000    0.03160114   -0.00139853
     atom   11 type  2   force =    -0.00000000    0.03160114    0.00139853
     atom   12 type  2   force =     0.00000000   -0.00892346   -0.00000000
     atom   13 type  2   force =     0.00000000    0.00892346    0.00000000
     atom   14 type  2   force =    -0.00000000   -0.03160114   -0.00139853

     Total force =     0.076901     Total SCF correction =     0.000018


     Computing stress (Cartesian axis) and pressure

          total   stress  (Ry/bohr**3)                   (kbar)     P=    1.58
  -0.00001604   0.00000000   0.00000000         -2.36      0.00      0.00
   0.00000000   0.00004628   0.00000000          0.00      6.81      0.00
   0.00000000   0.00000000   0.00000201          0.00      0.00      0.30


     number of scf cycles    =   2
     number of bfgs steps    =   1

     enthalpy old            =    -925.9634983904 Ry
     enthalpy new            =    -925.9697327330 Ry

     CASE: enthalpy_new < enthalpy_old

     new trust radius        =       0.0298777993 bohr
     new conv_thr            =            3.2E-11 Ry

     new unit-cell volume =   1271.00932 a.u.^3 (   188.34415 Ang^3 )
     density =      3.20710 g/cm^3

CELL_PARAMETERS (alat=  6.76758343)
   0.987038740   0.000000000   0.000000000
   0.000000000   1.292020926   0.000000000
   0.000000000   0.000000000   3.215467575

ATOMIC_POSITIONS (crystal)
V       -0.000000000   0.390665284   0.647909679
V        0.500000007   0.609334729   0.852090343
V        0.500000007   0.609334729   0.147909672
V       -0.000000000   0.390665284   0.352090335
O        0.500000007   0.493965409   0.681057768
O        0.000000000   0.506034606   0.818942255
O        0.000000000   0.506034606   0.181057759
O        0.500000007   0.493965409   0.318942248
O        0.000000000   0.045579744   0.356867777
O        0.500000007   0.954420271   0.143132230
O        0.500000007   0.954420271   0.856867785
O        0.500000007   0.499640746  -0.000000000
O        0.000000000   0.500359268   0.500000007
O       -0.000000000   0.045579744   0.643132237



     Writing output data file v2o5.save/
     NEW-OLD atomic charge density approx. for the potential

     Check: negative core charge=   -0.000013
     extrapolated charge  110.78247, renormalised to  112.00000

     total cpu time spent up to now is       39.9 secs

     Self-consistent Calculation

     iteration #  1     ecut=    65.00 Ry     beta= 0.70
     Davidson diagonalization with overlap
     ethr =  1.00E-06,  avg # of iterations = 11.5

     total cpu time spent up to now is       42.5 secs

     total energy              =    -925.36489748 Ry
     Harris-Foulkes estimate   =    -931.51078581 Ry
     estimated scf accuracy    <       0.60056226 Ry

     iteration #  2     ecut=    65.00 Ry     beta= 0.70
     Davidson diagonalization with overlap
     ethr =  5.36E-04,  avg # of iterations =  4.2

     total cpu time spent up to now is       43.8 secs

     total energy              =    -925.57073486 Ry
     Harris-Foulkes estimate   =    -927.51835547 Ry
     estimated scf accuracy    <       7.39503121 Ry

     iteration #  3     ecut=    65.00 Ry     beta= 0.70
     Davidson diagonalization with overlap
     ethr =  5.36E-04,  avg # of iterations =  5.0

     total cpu time spent up to now is       45.2 secs

     total energy              =    -925.98824092 Ry
     Harris-Foulkes estimate   =    -926.07739060 Ry
     estimated scf accuracy    <       0.66518571 Ry

     iteration #  4     ecut=    65.00 Ry     beta= 0.70
     Davidson diagonalization with overlap
     ethr =  5.36E-04,  avg # of iterations =  1.0

     total cpu time spent up to now is       45.7 secs

     total energy              =    -925.93714500 Ry
     Harris-Foulkes estimate   =    -925.99471260 Ry
     estimated scf accuracy    <       0.46803098 Ry

     iteration #  5     ecut=    65.00 Ry     beta= 0.70
     Davidson diagonalization with overlap
     ethr =  4.18E-04,  avg # of iterations =  1.5

     total cpu time spent up to now is       46.3 secs

     total energy              =    -925.95077023 Ry
     Harris-Foulkes estimate   =    -925.95254988 Ry
     estimated scf accuracy    <       0.20358430 Ry

     iteration #  6     ecut=    65.00 Ry     beta= 0.70
     Davidson diagonalization with overlap
     ethr =  1.82E-04,  avg # of iterations =  4.0

     total cpu time spent up to now is       47.0 secs

     total energy              =    -925.97457720 Ry
     Harris-Foulkes estimate   =    -925.96815306 Ry
     estimated scf accuracy    <       0.07289410 Ry

     iteration #  7     ecut=    65.00 Ry     beta= 0.70
     Davidson diagonalization with overlap
     ethr =  6.51E-05,  avg # of iterations =  1.0

     total cpu time spent up to now is       47.6 secs

     total energy              =    -925.98313612 Ry
     Harris-Foulkes estimate   =    -925.97591148 Ry
     estimated scf accuracy    <       0.07996126 Ry

     iteration #  8     ecut=    65.00 Ry     beta= 0.70
     Davidson diagonalization with overlap
     ethr =  6.51E-05,  avg # of iterations =  2.0

     total cpu time spent up to now is       48.2 secs

     total energy              =    -925.98162847 Ry
     Harris-Foulkes estimate   =    -925.98458153 Ry
     estimated scf accuracy    <       0.10806016 Ry

     iteration #  9     ecut=    65.00 Ry     beta= 0.70
     Davidson diagonalization with overlap
     ethr =  6.51E-05,  avg # of iterations =  1.0

     total cpu time spent up to now is       48.7 secs

     total energy              =    -925.97280973 Ry
     Harris-Foulkes estimate   =    -925.98263183 Ry
     estimated scf accuracy    <       0.10051782 Ry

     iteration # 10     ecut=    65.00 Ry     beta= 0.70
     Davidson diagonalization with overlap
     ethr =  6.51E-05,  avg # of iterations =  2.0

     total cpu time spent up to now is       49.3 secs

     total energy              =    -925.96458283 Ry
     Harris-Foulkes estimate   =    -925.97449290 Ry
     estimated scf accuracy    <       0.07607380 Ry

     iteration # 11     ecut=    65.00 Ry     beta= 0.70
     Davidson diagonalization with overlap
     ethr =  6.51E-05,  avg # of iterations =  3.0

     total cpu time spent up to now is       49.9 secs

     total energy              =    -925.97504734 Ry
     Harris-Foulkes estimate   =    -925.96762660 Ry
     estimated scf accuracy    <       0.03488650 Ry

     iteration # 12     ecut=    65.00 Ry     beta= 0.70
     Davidson diagonalization with overlap
     ethr =  3.11E-05,  avg # of iterations =  4.0

     total cpu time spent up to now is       50.6 secs

     total energy              =    -925.97610093 Ry
     Harris-Foulkes estimate   =    -925.97680698 Ry
     estimated scf accuracy    <       0.04945665 Ry

     iteration # 13     ecut=    65.00 Ry     beta= 0.70
     Davidson diagonalization with overlap
     ethr =  3.11E-05,  avg # of iterations =  1.0

     total cpu time spent up to now is       51.1 secs

     total energy              =    -925.95825806 Ry
     Harris-Foulkes estimate   =    -925.97647438 Ry
     estimated scf accuracy    <       0.04743003 Ry

     iteration # 14     ecut=    65.00 Ry     beta= 0.70
     Davidson diagonalization with overlap
     ethr =  3.11E-05,  avg # of iterations =  5.0

     total cpu time spent up to now is       52.3 secs

     total energy              =    -925.98343352 Ry
     Harris-Foulkes estimate   =    -925.97666221 Ry
     estimated scf accuracy    <       0.04939207 Ry

     iteration # 15     ecut=    65.00 Ry     beta= 0.70
     Davidson diagonalization with overlap
     ethr =  3.11E-05,  avg # of iterations =  1.0

     total cpu time spent up to now is       52.8 secs

     total energy              =    -925.97388483 Ry
     Harris-Foulkes estimate   =    -925.98414998 Ry
     estimated scf accuracy    <       0.07542465 Ry

     iteration # 16     ecut=    65.00 Ry     beta= 0.70
     Davidson diagonalization with overlap
     ethr =  3.11E-05,  avg # of iterations =  1.0

     total cpu time spent up to now is       53.3 secs

     total energy              =    -925.96782870 Ry
     Harris-Foulkes estimate   =    -925.97455577 Ry
     estimated scf accuracy    <       0.05435819 Ry

     iteration # 17     ecut=    65.00 Ry     beta= 0.70
     Davidson diagonalization with overlap
     ethr =  3.11E-05,  avg # of iterations =  4.0

     total cpu time spent up to now is       54.1 secs

     total energy              =    -925.97077699 Ry
     Harris-Foulkes estimate   =    -925.97064789 Ry
     estimated scf accuracy    <       0.01089677 Ry

     iteration # 18     ecut=    65.00 Ry     beta= 0.70
     Davidson diagonalization with overlap
     ethr =  9.73E-06,  avg # of iterations =  4.5

     total cpu time spent up to now is       54.8 secs

     total energy              =    -925.97268581 Ry
     Harris-Foulkes estimate   =    -925.97147426 Ry
     estimated scf accuracy    <       0.00803947 Ry

     iteration # 19     ecut=    65.00 Ry     beta= 0.70
     Davidson diagonalization with overlap
     ethr =  7.18E-06,  avg # of iterations =  3.2

     total cpu time spent up to now is       55.4 secs

     total energy              =    -925.97735393 Ry
     Harris-Foulkes estimate   =    -925.97306809 Ry
     estimated scf accuracy    <       0.01486765 Ry

     iteration # 20     ecut=    65.00 Ry     beta= 0.70
     Davidson diagonalization with overlap
     ethr =  7.18E-06,  avg # of iterations =  4.0

     total cpu time spent up to now is       56.4 secs

     total energy              =    -925.96834508 Ry
     Harris-Foulkes estimate   =    -925.98090880 Ry
     estimated scf accuracy    <       0.09020234 Ry

     iteration # 21     ecut=    65.00 Ry     beta= 0.70
     Davidson diagonalization with overlap
     ethr =  7.18E-06,  avg # of iterations =  5.0

     total cpu time spent up to now is       57.6 secs

     total energy              =    -925.97592351 Ry
     Harris-Foulkes estimate   =    -925.97252980 Ry
     estimated scf accuracy    <       0.01113805 Ry

     iteration # 22     ecut=    65.00 Ry     beta= 0.70
     Davidson diagonalization with overlap
     ethr =  7.18E-06,  avg # of iterations =  5.0

     total cpu time spent up to now is       58.6 secs

     total energy              =    -925.97258084 Ry
     Harris-Foulkes estimate   =    -925.97947098 Ry
     estimated scf accuracy    <       0.07578054 Ry

     iteration # 23     ecut=    65.00 Ry     beta= 0.70
     Davidson diagonalization with overlap
     ethr =  7.18E-06,  avg # of iterations =  4.0

     total cpu time spent up to now is       59.5 secs

     total energy              =    -925.97156891 Ry
     Harris-Foulkes estimate   =    -925.97382332 Ry
     estimated scf accuracy    <       0.02991202 Ry

     iteration # 24     ecut=    65.00 Ry     beta= 0.70
     Davidson diagonalization with overlap
     ethr =  7.18E-06,  avg # of iterations =  3.2

     total cpu time spent up to now is       60.1 secs

     total energy              =    -925.96878579 Ry
     Harris-Foulkes estimate   =    -925.97184344 Ry
     estimated scf accuracy    <       0.02099468 Ry

     iteration # 25     ecut=    65.00 Ry     beta= 0.70
     Davidson diagonalization with overlap
     ethr =  7.18E-06,  avg # of iterations =  4.0

     total cpu time spent up to now is       61.0 secs

     total energy              =    -925.97110281 Ry
     Harris-Foulkes estimate   =    -925.97110938 Ry
     estimated scf accuracy    <       0.00034717 Ry

     iteration # 26     ecut=    65.00 Ry     beta= 0.70
     Davidson diagonalization with overlap
     ethr =  3.10E-07,  avg # of iterations =  5.0

     total cpu time spent up to now is       62.5 secs

     total energy              =    -925.97317362 Ry
     Harris-Foulkes estimate   =    -925.97206491 Ry
     estimated scf accuracy    <       0.00856844 Ry

     iteration # 27     ecut=    65.00 Ry     beta= 0.70
     Davidson diagonalization with overlap
     ethr =  3.10E-07,  avg # of iterations =  5.0

     total cpu time spent up to now is       63.8 secs

     total energy              =    -925.97041842 Ry
     Harris-Foulkes estimate   =    -925.97343237 Ry
     estimated scf accuracy    <       0.02032119 Ry

     iteration # 28     ecut=    65.00 Ry     beta= 0.70
     Davidson diagonalization with overlap
     ethr =  3.10E-07,  avg # of iterations =  5.0

     total cpu time spent up to now is       65.1 secs

     total energy              =    -925.97080290 Ry
     Harris-Foulkes estimate   =    -925.97133141 Ry
     estimated scf accuracy    <       0.00243069 Ry

     iteration # 29     ecut=    65.00 Ry     beta= 0.70
     Davidson diagonalization with overlap
     ethr =  3.10E-07,  avg # of iterations =  4.5

     total cpu time spent up to now is       66.3 secs

     total energy              =    -925.97107067 Ry
     Harris-Foulkes estimate   =    -925.97107437 Ry
     estimated scf accuracy    <       0.00001837 Ry

     iteration # 30     ecut=    65.00 Ry     beta= 0.70
     Davidson diagonalization with overlap
     ethr =  1.64E-08,  avg # of iterations =  2.2

     total cpu time spent up to now is       66.9 secs

     total energy              =    -925.97106922 Ry
     Harris-Foulkes estimate   =    -925.97107155 Ry
     estimated scf accuracy    <       0.00000816 Ry

     iteration # 31     ecut=    65.00 Ry     beta= 0.70
     Davidson diagonalization with overlap
     ethr =  7.29E-09,  avg # of iterations =  4.0

     total cpu time spent up to now is       68.0 secs

     total energy              =    -925.97107173 Ry
     Harris-Foulkes estimate   =    -925.97107255 Ry
     estimated scf accuracy    <       0.00000430 Ry

     iteration # 32     ecut=    65.00 Ry     beta= 0.70
     Davidson diagonalization with overlap
     ethr =  3.84E-09,  avg # of iterations =  1.0

     total cpu time spent up to now is       68.5 secs

     total energy              =    -925.97107154 Ry
     Harris-Foulkes estimate   =    -925.97107185 Ry
     estimated scf accuracy    <       0.00000202 Ry

     iteration # 33     ecut=    65.00 Ry     beta= 0.70
     Davidson diagonalization with overlap
     ethr =  1.81E-09,  avg # of iterations =  4.0

     total cpu time spent up to now is       69.4 secs

     total energy              =    -925.97107198 Ry
     Harris-Foulkes estimate   =    -925.97107200 Ry
     estimated scf accuracy    <       0.00000041 Ry

     iteration # 34     ecut=    65.00 Ry     beta= 0.70
     Davidson diagonalization with overlap
     ethr =  3.66E-10,  avg # of iterations =  4.0

     total cpu time spent up to now is       70.1 secs

     total energy              =    -925.97107196 Ry
     Harris-Foulkes estimate   =    -925.97107202 Ry
     estimated scf accuracy    <       0.00000039 Ry

     iteration # 35     ecut=    65.00 Ry     beta= 0.70
     Davidson diagonalization with overlap
     ethr =  3.44E-10,  avg # of iterations =  1.0

     total cpu time spent up to now is       70.6 secs

     total energy              =    -925.97107194 Ry
     Harris-Foulkes estimate   =    -925.97107197 Ry
     estimated scf accuracy    <       0.00000020 Ry

     iteration # 36     ecut=    65.00 Ry     beta= 0.70
     Davidson diagonalization with overlap
     ethr =  1.78E-10,  avg # of iterations =  4.0

     total cpu time spent up to now is       71.5 secs

     total energy              =    -925.97107198 Ry
     Harris-Foulkes estimate   =    -925.97107198 Ry
     estimated scf accuracy    <          9.9E-09 Ry

     iteration # 37     ecut=    65.00 Ry     beta= 0.70
     Davidson diagonalization with overlap
     ethr =  8.82E-12,  avg # of iterations =  5.0

     total cpu time spent up to now is       72.7 secs

     total energy              =    -925.97107198 Ry
     Harris-Foulkes estimate   =    -925.97107198 Ry
     estimated scf accuracy    <       0.00000004 Ry

     iteration # 38     ecut=    65.00 Ry     beta= 0.70
     Davidson diagonalization with overlap
     ethr =  8.82E-12,  avg # of iterations =  4.0

     total cpu time spent up to now is       73.5 secs

     total energy              =    -925.97107198 Ry
     Harris-Foulkes estimate   =    -925.97107198 Ry
     estimated scf accuracy    <          7.1E-09 Ry

     iteration # 39     ecut=    65.00 Ry     beta= 0.70
     Davidson diagonalization with overlap
     ethr =  6.30E-12,  avg # of iterations =  3.2

     total cpu time spent up to now is       74.2 secs

     total energy              =    -925.97107198 Ry
     Harris-Foulkes estimate   =    -925.97107198 Ry
     estimated scf accuracy    <          3.1E-09 Ry

     iteration # 40     ecut=    65.00 Ry     beta= 0.70
     Davidson diagonalization with overlap
     ethr =  2.74E-12,  avg # of iterations =  4.5

     total cpu time spent up to now is       75.1 secs

     total energy              =    -925.97107198 Ry
     Harris-Foulkes estimate   =    -925.97107198 Ry
     estimated scf accuracy    <          1.8E-10 Ry

     iteration # 41     ecut=    65.00 Ry     beta= 0.70
     Davidson diagonalization with overlap
     ethr =  1.60E-13,  avg # of iterations =  4.8

     total cpu time spent up to now is       75.9 secs

     total energy              =    -925.97107198 Ry
     Harris-Foulkes estimate   =    -925.97107198 Ry
     estimated scf accuracy    <          2.0E-10 Ry

     iteration # 42     ecut=    65.00 Ry     beta= 0.70
     Davidson diagonalization with overlap
     ethr =  1.60E-13,  avg # of iterations =  3.2

     total cpu time spent up to now is       76.6 secs

     total energy              =    -925.97107198 Ry
     Harris-Foulkes estimate   =    -925.97107198 Ry
     estimated scf accuracy    <          5.0E-11 Ry

     iteration # 43     ecut=    65.00 Ry     beta= 0.70
     Davidson diagonalization with overlap
     ethr =  1.00E-13,  avg # of iterations =  3.8

     total cpu time spent up to now is       77.2 secs

     End of self-consistent calculation

          k = 0.0000 0.0000 0.0000 ( 11727 PWs)   bands (ev):

   -60.5853 -60.5832 -60.5735 -60.5711 -34.5553 -34.5494 -34.5409 -34.5337
   -34.5137 -34.4629 -34.4382 -34.4145 -34.4120 -34.3879 -34.3791 -34.3766
   -14.0486 -13.9307 -12.9661 -12.8841 -12.7960 -12.7193 -12.2397 -12.2253
   -12.0815 -12.0790  -0.8790  -0.8665  -0.8246  -0.7314  -0.5309  -0.1035
     0.5213   0.7196   0.8518   0.8888   1.1108   1.1568   1.4085   1.4222
     1.4462   1.5406   1.6480   1.7216   1.8092   1.9950   2.0392   2.0504
     2.1274   2.3678   2.5975   2.6408   2.6733   2.8136   2.8876   2.9914

          k = 0.0000 0.2580 0.0000 ( 11689 PWs)   bands (ev):

   -60.5850 -60.5829 -60.5733 -60.5714 -34.5561 -34.5502 -34.5428 -34.5355
   -34.5136 -34.4626 -34.4382 -34.4144 -34.4119 -34.3879 -34.3791 -34.3766
   -14.0030 -13.8930 -12.9275 -12.8694 -12.7912 -12.7056 -12.2490 -12.2154
   -12.0778 -12.0403  -0.9078  -0.8946  -0.8411  -0.7601  -0.6484  -0.2764
    -0.1224   0.1188   0.1956   0.3388   0.8563   0.9321   0.9921   1.4283
     1.5308   1.6255   1.7428   1.8414   1.9916   2.1947   2.2858   2.4108
     2.5217   2.6225   2.6274   2.6675   2.7129   2.9966   3.0555   3.1889

          k = 0.3377 0.0000 0.0000 ( 11680 PWs)   bands (ev):

   -60.5800 -60.5784 -60.5745 -60.5722 -34.5476 -34.5438 -34.5373 -34.5327
   -34.5133 -34.4919 -34.4738 -34.4694 -34.4202 -34.4160 -34.3997 -34.3876
   -13.4768 -13.3451 -12.8647 -12.7478 -12.7229 -12.6730 -12.1736 -12.1643
   -12.1137 -12.1043  -1.3896  -1.3079  -0.5693  -0.5623  -0.4373  -0.0932
    -0.0192   0.3663   0.3911   0.7179   0.7723   0.8563   1.1691   1.3104
     1.3683   1.4658   1.4895   1.6004   1.6886   1.7526   1.8269   1.8415
     2.0134   2.2883   2.6069   2.7543   2.7939   2.9900   3.1097   3.1290

          k = 0.3377 0.2580 0.0000 ( 11661 PWs)   bands (ev):

   -60.5801 -60.5779 -60.5746 -60.5721 -34.5485 -34.5448 -34.5389 -34.5342
   -34.5132 -34.4918 -34.4736 -34.4693 -34.4202 -34.4160 -34.3998 -34.3876
   -13.4383 -13.3179 -12.8431 -12.7457 -12.7072 -12.6609 -12.1731 -12.1424
   -12.0874 -12.0556  -1.3889  -1.3058  -0.6092  -0.6064  -0.5136  -0.1796
    -0.1447  -0.0471   0.1117   0.3221   0.4110   0.4893   0.8976   0.9913
     1.0262   1.1148   1.2541   1.3131   1.4455   1.8906   2.0649   2.3332
     2.4870   2.5378   2.8784   3.0672   3.0852   3.2366   3.2678   3.2936

     highest occupied level (ev):     3.2936

!    total energy              =    -925.97107198 Ry
     Harris-Foulkes estimate   =    -925.97107198 Ry
     estimated scf accuracy    <          1.4E-11 Ry

     The total energy is the sum of the following terms:

     one-electron contribution =    -614.11848825 Ry
     hartree contribution      =     345.51157820 Ry
     xc contribution           =    -178.33782191 Ry
     ewald contribution        =    -479.02634001 Ry

     convergence has been achieved in  43 iterations

     Forces acting on atoms (cartesian axes, Ry/au):

     atom    1 type  1   force =     0.00000000   -0.02424514   -0.00041631
     atom    2 type  1   force =     0.00000000    0.02424514    0.00041631
     atom    3 type  1   force =     0.00000000    0.02424514   -0.00041631
     atom    4 type  1   force =    -0.00000000   -0.02424514    0.00041631
     atom    5 type  2   force =    -0.00000000    0.00622090   -0.00312089
     atom    6 type  2   force =     0.00000000   -0.00622090    0.00312089
     atom    7 type  2   force =     0.00000000   -0.00622090   -0.00312089
     atom    8 type  2   force =    -0.00000000    0.00622090    0.00312089
     atom    9 type  2   force =    -0.00000000    0.00539572    0.00022949
     atom   10 type  2   force =     0.00000000   -0.00539572   -0.00022949
     atom   11 type  2   force =     0.00000000   -0.00539572    0.00022949
     atom   12 type  2   force =     0.00000000   -0.01139531    0.00000000
     atom   13 type  2   force =     0.00000000    0.01139531    0.00000000
     atom   14 type  2   force =     0.00000000    0.00539572   -0.00022949

     Total force =     0.054057     Total SCF correction =     0.000005


     Computing stress (Cartesian axis) and pressure

          total   stress  (Ry/bohr**3)                   (kbar)     P=    2.09
   0.00015932   0.00000000   0.00000000         23.44      0.00      0.00
   0.00000000  -0.00025800   0.00000000          0.00    -37.95      0.00
   0.00000000   0.00000000   0.00014132          0.00      0.00     20.79


     number of scf cycles    =   3
     number of bfgs steps    =   2

     enthalpy old            =    -925.9697327330 Ry
     enthalpy new            =    -925.9710719767 Ry

     CASE: enthalpy_new < enthalpy_old

     new trust radius        =       0.0300376746 bohr
     new conv_thr            =            1.3E-11 Ry

     new unit-cell volume =   1270.89310 a.u.^3 (   188.32693 Ang^3 )
     density =      3.20739 g/cm^3

CELL_PARAMETERS (alat=  6.76758343)
   0.989135278   0.000000000   0.000000000
   0.000000000   1.286578012   0.000000000
   0.000000000   0.000000000   3.221931860

ATOMIC_POSITIONS (crystal)
V       -0.000000000   0.389732256   0.647982654
V        0.500000007   0.610267758   0.852017368
V        0.500000007   0.610267758   0.147982647
V       -0.000000000   0.389732256   0.352017361
O        0.500000007   0.494596424   0.680907133
O        0.000000000   0.505403591   0.819092890
O        0.000000000   0.505403591   0.180907125
O        0.500000007   0.494596424   0.319092883
O        0.000000000   0.044574358   0.356900123
O        0.500000007   0.955425656   0.143099885
O        0.500000007   0.955425656   0.856900130
O        0.500000007   0.498388003  -0.000000000
O        0.000000000   0.501612011   0.500000007
O       -0.000000000   0.044574358   0.643099892



     Writing output data file v2o5.save/
     NEW-OLD atomic charge density approx. for the potential

     Check: negative core charge=   -0.000013
     extrapolated charge  111.98976, renormalised to  112.00000

     total cpu time spent up to now is       79.1 secs

     Self-consistent Calculation

     iteration #  1     ecut=    65.00 Ry     beta= 0.70
     Davidson diagonalization with overlap
     ethr =  1.00E-06,  avg # of iterations =  5.0

     total cpu time spent up to now is       80.6 secs

     total energy              =    -925.97351447 Ry
     Harris-Foulkes estimate   =    -926.01957081 Ry
     estimated scf accuracy    <       0.00026639 Ry

     iteration #  2     ecut=    65.00 Ry     beta= 0.70
     Davidson diagonalization with overlap
     ethr =  2.38E-07,  avg # of iterations =  4.8

     total cpu time spent up to now is       81.8 secs

     total energy              =    -925.97353673 Ry
     Harris-Foulkes estimate   =    -925.97361373 Ry
     estimated scf accuracy    <       0.00012621 Ry

     iteration #  3     ecut=    65.00 Ry     beta= 0.70
     Davidson diagonalization with overlap
     ethr =  1.13E-07,  avg # of iterations =  5.0

     total cpu time spent up to now is       83.2 secs

     total energy              =    -925.97350975 Ry
     Harris-Foulkes estimate   =    -925.97367757 Ry
     estimated scf accuracy    <       0.00072660 Ry

     iteration #  4     ecut=    65.00 Ry     beta= 0.70
     Davidson diagonalization with overlap
     ethr =  1.13E-07,  avg # of iterations =  5.0

     total cpu time spent up to now is       84.4 secs

     total energy              =    -925.97359481 Ry
     Harris-Foulkes estimate   =    -925.97359716 Ry
     estimated scf accuracy    <       0.00000931 Ry

     iteration #  5     ecut=    65.00 Ry     beta= 0.70
     Davidson diagonalization with overlap
     ethr =  8.31E-09,  avg # of iterations =  5.0

     total cpu time spent up to now is       85.4 secs

     total energy              =    -925.97359519 Ry
     Harris-Foulkes estimate   =    -925.97359714 Ry
     estimated scf accuracy    <       0.00000636 Ry

     iteration #  6     ecut=    65.00 Ry     beta= 0.70
     Davidson diagonalization with overlap
     ethr =  5.68E-09,  avg # of iterations =  4.0

     total cpu time spent up to now is       86.2 secs

     total energy              =    -925.97359627 Ry
     Harris-Foulkes estimate   =    -925.97359627 Ry
     estimated scf accuracy    <       0.00000005 Ry

     iteration #  7     ecut=    65.00 Ry     beta= 0.70
     Davidson diagonalization with overlap
     ethr =  4.35E-11,  avg # of iterations =  5.5

     total cpu time spent up to now is       87.7 secs

     total energy              =    -925.97359638 Ry
     Harris-Foulkes estimate   =    -925.97359642 Ry
     estimated scf accuracy    <       0.00000029 Ry

     iteration #  8     ecut=    65.00 Ry     beta= 0.70
     Davidson diagonalization with overlap
     ethr =  4.35E-11,  avg # of iterations =  4.5

     total cpu time spent up to now is       88.6 secs

     total energy              =    -925.97359637 Ry
     Harris-Foulkes estimate   =    -925.97359639 Ry
     estimated scf accuracy    <       0.00000012 Ry

     iteration #  9     ecut=    65.00 Ry     beta= 0.70
     Davidson diagonalization with overlap
     ethr =  4.35E-11,  avg # of iterations =  4.0

     total cpu time spent up to now is       89.5 secs

     total energy              =    -925.97359637 Ry
     Harris-Foulkes estimate   =    -925.97359638 Ry
     estimated scf accuracy    <       0.00000002 Ry

     iteration # 10     ecut=    65.00 Ry     beta= 0.70
     Davidson diagonalization with overlap
     ethr =  1.52E-11,  avg # of iterations =  4.2

     total cpu time spent up to now is       90.3 secs

     total energy              =    -925.97359638 Ry
     Harris-Foulkes estimate   =    -925.97359638 Ry
     estimated scf accuracy    <          3.1E-10 Ry

     iteration # 11     ecut=    65.00 Ry     beta= 0.70
     Davidson diagonalization with overlap
     ethr =  2.80E-13,  avg # of iterations =  5.5

     total cpu time spent up to now is       91.6 secs

     total energy              =    -925.97359638 Ry
     Harris-Foulkes estimate   =    -925.97359638 Ry
     estimated scf accuracy    <          1.7E-09 Ry

     iteration # 12     ecut=    65.00 Ry     beta= 0.70
     Davidson diagonalization with overlap
     ethr =  2.80E-13,  avg # of iterations =  4.0

     total cpu time spent up to now is       92.6 secs

     total energy              =    -925.97359638 Ry
     Harris-Foulkes estimate   =    -925.97359638 Ry
     estimated scf accuracy    <          1.7E-10 Ry

     iteration # 13     ecut=    65.00 Ry     beta= 0.70
     Davidson diagonalization with overlap
     ethr =  1.55E-13,  avg # of iterations =  3.8

     total cpu time spent up to now is       93.3 secs

     End of self-consistent calculation

          k = 0.0000 0.0000 0.0000 ( 11727 PWs)   bands (ev):

   -60.5806 -60.5786 -60.5692 -60.5668 -34.5651 -34.5618 -34.5523 -34.5467
   -34.5004 -34.4491 -34.4257 -34.4033 -34.4009 -34.3759 -34.3688 -34.3664
   -13.9990 -13.8831 -12.9306 -12.8460 -12.7441 -12.6720 -12.2600 -12.2521
   -12.1099 -12.1053  -0.8288  -0.8176  -0.7543  -0.6709  -0.4758  -0.0710
     0.5623   0.7180   0.8924   0.9049   1.1056   1.1519   1.3841   1.3998
     1.4248   1.5175   1.6846   1.7639   1.7847   1.9424   2.0087   2.0372
     2.1317   2.4065   2.6137   2.6255   2.6453   2.8374   2.8722   2.9894

          k = 0.0000 0.2591 0.0000 ( 11689 PWs)   bands (ev):

   -60.5803 -60.5784 -60.5690 -60.5671 -34.5661 -34.5627 -34.5542 -34.5486
   -34.5002 -34.4488 -34.4257 -34.4032 -34.4008 -34.3759 -34.3688 -34.3664
   -13.9493 -13.8419 -12.8871 -12.8289 -12.7379 -12.6550 -12.2737 -12.2430
   -12.1060 -12.0714  -0.8610  -0.8489  -0.7763  -0.7027  -0.6044  -0.2814
    -0.0959   0.1258   0.1854   0.3355   0.8262   0.9135   0.9739   1.4047
     1.5029   1.6663   1.8091   1.8525   2.0036   2.1488   2.2586   2.3745
     2.5568   2.6057   2.6123   2.6946   2.7381   3.0107   3.0704   3.1914

          k = 0.3370 0.0000 0.0000 ( 11680 PWs)   bands (ev):

   -60.5755 -60.5739 -60.5701 -60.5680 -34.5583 -34.5558 -34.5499 -34.5460
   -34.4993 -34.4772 -34.4610 -34.4562 -34.4084 -34.4045 -34.3880 -34.3757
   -13.4338 -13.3057 -12.8166 -12.7118 -12.6900 -12.6284 -12.1961 -12.1938
   -12.1483 -12.1285  -1.3305  -1.2526  -0.5092  -0.5056  -0.3798  -0.0624
     0.0138   0.4143   0.4149   0.7405   0.7899   0.8628   1.1861   1.3069
     1.3578   1.4498   1.4662   1.5808   1.6591   1.7368   1.8098   1.8681
     1.9791   2.2896   2.6099   2.7218   2.7874   2.9727   3.1284   3.1703

          k = 0.3370 0.2591 0.0000 ( 11661 PWs)   bands (ev):

   -60.5756 -60.5735 -60.5703 -60.5678 -34.5594 -34.5569 -34.5516 -34.5476
   -34.4991 -34.4771 -34.4608 -34.4560 -34.4083 -34.4045 -34.3880 -34.3757
   -13.3915 -13.2757 -12.7923 -12.7095 -12.6703 -12.6131 -12.1997 -12.1723
   -12.1161 -12.0876  -1.3298  -1.2504  -0.5635  -0.5506  -0.4665  -0.1712
    -0.1154  -0.0223   0.1171   0.3236   0.4040   0.5153   0.9236   0.9560
     1.0242   1.1066   1.2252   1.3142   1.4209   1.8666   2.0846   2.3044
     2.4923   2.5329   2.8705   3.0692   3.1057   3.2419   3.3008   3.3083

     highest occupied level (ev):     3.3083

!    total energy              =    -925.97359638 Ry
     Harris-Foulkes estimate   =    -925.97359638 Ry
     estimated scf accuracy    <          5.8E-12 Ry

     The total energy is the sum of the following terms:

     one-electron contribution =    -611.65613815 Ry
     hartree contribution      =     344.31103986 Ry
     xc contribution           =    -178.32611527 Ry
     ewald contribution        =    -480.30238282 Ry

     convergence has been achieved in  13 iterations

     Forces acting on atoms (cartesian axes, Ry/au):

     atom    1 type  1   force =     0.00000000   -0.00867039   -0.00299032
     atom    2 type  1   force =     0.00000000    0.00867039    0.00299032
     atom    3 type  1   force =     0.00000000    0.00867039   -0.00299032
     atom    4 type  1   force =    -0.00000000   -0.00867039    0.00299032
     atom    5 type  2   force =     0.00000000    0.00471981   -0.00167946
     atom    6 type  2   force =     0.00000000   -0.00471981    0.00167946
     atom    7 type  2   force =     0.00000000   -0.00471981   -0.00167946
     atom    8 type  2   force =     0.00000000    0.00471981    0.00167946
     atom    9 type  2   force =     0.00000000   -0.00480344    0.00038154
     atom   10 type  2   force =    -0.00000000    0.00480344   -0.00038154
     atom   11 type  2   force =    -0.00000000    0.00480344    0.00038154
     atom   12 type  2   force =     0.00000000   -0.00684367   -0.00000000
     atom   13 type  2   force =    -0.00000000    0.00684367    0.00000000
     atom   14 type  2   force =     0.00000000   -0.00480344   -0.00038154

     Total force =     0.024968     Total SCF correction =     0.000004


     Computing stress (Cartesian axis) and pressure

          total   stress  (Ry/bohr**3)                   (kbar)     P=   -0.57
   0.00008700   0.00000000   0.00000000         12.80      0.00      0.00
   0.00000000  -0.00014630   0.00000000          0.00    -21.52      0.00
   0.00000000   0.00000000   0.00004759          0.00      0.00      7.00


     number of scf cycles    =   4
     number of bfgs steps    =   3

     enthalpy old            =    -925.9710719767 Ry
     enthalpy new            =    -925.9735963782 Ry

     CASE: enthalpy_new < enthalpy_old

     new trust radius        =       0.0331797080 bohr
     new conv_thr            =            8.7E-12 Ry

     new unit-cell volume =   1267.04907 a.u.^3 (   187.75730 Ang^3 )
     density =      3.21712 g/cm^3

CELL_PARAMETERS (alat=  6.76758343)
   0.990256417   0.000000000   0.000000000
   0.000000000   1.280590806   0.000000000
   0.000000000   0.000000000   3.223550913

ATOMIC_POSITIONS (crystal)
V       -0.000000000   0.389339266   0.647954333
V        0.500000007   0.610660748   0.852045689
V        0.500000007   0.610660748   0.147954325
V       -0.000000000   0.389339266   0.352045682
O        0.500000007   0.495273278   0.680769874
O        0.000000000   0.504726737   0.819230149
O        0.000000000   0.504726737   0.180769866
O        0.500000007   0.495273278   0.319230141
O        0.000000000   0.042959374   0.356939432
O        0.500000007   0.957040641   0.143060575
O        0.500000007   0.957040641   0.856939439
O        0.500000007   0.497207097  -0.000000000
O       -0.000000000   0.502792916   0.500000007
O       -0.000000000   0.042959374   0.643060583



     Writing output data file v2o5.save/
     NEW-OLD atomic charge density approx. for the potential

     Check: negative core charge=   -0.000012
     extrapolated charge  111.66022, renormalised to  112.00000

     total cpu time spent up to now is       95.2 secs

     Self-consistent Calculation

     iteration #  1     ecut=    65.00 Ry     beta= 0.70
     Davidson diagonalization with overlap
     ethr =  1.00E-06,  avg # of iterations =  8.8

     total cpu time spent up to now is       97.4 secs

     total energy              =    -925.93840335 Ry
     Harris-Foulkes estimate   =    -927.49161458 Ry
     estimated scf accuracy    <       0.03548035 Ry

     iteration #  2     ecut=    65.00 Ry     beta= 0.70
     Davidson diagonalization with overlap
     ethr =  3.17E-05,  avg # of iterations =  5.0

     total cpu time spent up to now is       98.7 secs

     total energy              =    -925.92038061 Ry
     Harris-Foulkes estimate   =    -926.08821735 Ry
     estimated scf accuracy    <       0.80290061 Ry

     iteration #  3     ecut=    65.00 Ry     beta= 0.70
     Davidson diagonalization with overlap
     ethr =  3.17E-05,  avg # of iterations =  5.0

     total cpu time spent up to now is      100.1 secs

     total energy              =    -925.97612204 Ry
     Harris-Foulkes estimate   =    -925.97963093 Ry
     estimated scf accuracy    <       0.02831581 Ry

     iteration #  4     ecut=    65.00 Ry     beta= 0.70
     Davidson diagonalization with overlap
     ethr =  2.53E-05,  avg # of iterations =  1.0

     total cpu time spent up to now is      100.7 secs

     total energy              =    -925.97284174 Ry
     Harris-Foulkes estimate   =    -925.97645459 Ry
     estimated scf accuracy    <       0.02087121 Ry

     iteration #  5     ecut=    65.00 Ry     beta= 0.70
     Davidson diagonalization with overlap
     ethr =  1.86E-05,  avg # of iterations =  3.0

     total cpu time spent up to now is      101.4 secs

     total energy              =    -925.97465750 Ry
     Harris-Foulkes estimate   =    -925.97465148 Ry
     estimated scf accuracy    <       0.00130633 Ry

     iteration #  6     ecut=    65.00 Ry     beta= 0.70
     Davidson diagonalization with overlap
     ethr =  1.17E-06,  avg # of iterations =  5.0

     total cpu time spent up to now is      102.4 secs

     total energy              =    -925.97519666 Ry
     Harris-Foulkes estimate   =    -925.97520339 Ry
     estimated scf accuracy    <       0.00037530 Ry

     iteration #  7     ecut=    65.00 Ry     beta= 0.70
     Davidson diagonalization with overlap
     ethr =  3.35E-07,  avg # of iterations =  1.0

     total cpu time spent up to now is      103.0 secs

     total energy              =    -925.97518806 Ry
     Harris-Foulkes estimate   =    -925.97519844 Ry
     estimated scf accuracy    <       0.00035524 Ry

     iteration #  8     ecut=    65.00 Ry     beta= 0.70
     Davidson diagonalization with overlap
     ethr =  3.17E-07,  avg # of iterations =  1.0

     total cpu time spent up to now is      103.5 secs

     total energy              =    -925.97518205 Ry
     Harris-Foulkes estimate   =    -925.97519314 Ry
     estimated scf accuracy    <       0.00033232 Ry

     iteration #  9     ecut=    65.00 Ry     beta= 0.70
     Davidson diagonalization with overlap
     ethr =  2.97E-07,  avg # of iterations =  1.0

     total cpu time spent up to now is      104.0 secs

     total energy              =    -925.97526885 Ry
     Harris-Foulkes estimate   =    -925.97518773 Ry
     estimated scf accuracy    <       0.00031782 Ry

     iteration # 10     ecut=    65.00 Ry     beta= 0.70
     Davidson diagonalization with overlap
     ethr =  2.84E-07,  avg # of iterations =  5.0

     total cpu time spent up to now is      105.5 secs

     total energy              =    -925.97448057 Ry
     Harris-Foulkes estimate   =    -925.97568726 Ry
     estimated scf accuracy    <       0.00441032 Ry

     iteration # 11     ecut=    65.00 Ry     beta= 0.70
     Davidson diagonalization with overlap
     ethr =  2.84E-07,  avg # of iterations =  5.0

     total cpu time spent up to now is      106.8 secs

     total energy              =    -925.97691217 Ry
     Harris-Foulkes estimate   =    -925.97535949 Ry
     estimated scf accuracy    <       0.00171782 Ry

     iteration # 12     ecut=    65.00 Ry     beta= 0.70
     Davidson diagonalization with overlap
     ethr =  2.84E-07,  avg # of iterations =  5.8

     total cpu time spent up to now is      108.3 secs

     total energy              =    -925.95243821 Ry
     Harris-Foulkes estimate   =    -925.98088638 Ry
     estimated scf accuracy    <       0.05002727 Ry

     iteration # 13     ecut=    65.00 Ry     beta= 0.70
     Davidson diagonalization with overlap
     ethr =  2.84E-07,  avg # of iterations =  8.5

     total cpu time spent up to now is      110.3 secs

     total energy              =    -926.06467763 Ry
     Harris-Foulkes estimate   =    -926.00549227 Ry
     estimated scf accuracy    <       0.22174776 Ry

     iteration # 14     ecut=    65.00 Ry     beta= 0.70
     Davidson diagonalization with overlap
     ethr =  2.84E-07,  avg # of iterations =  6.0

     total cpu time spent up to now is      112.0 secs

     total energy              =    -925.87804103 Ry
     Harris-Foulkes estimate   =    -926.08544759 Ry
     estimated scf accuracy    <       0.77446425 Ry

     iteration # 15     ecut=    65.00 Ry     beta= 0.70
     Davidson diagonalization with overlap
     ethr =  2.84E-07,  avg # of iterations = 10.0

     total cpu time spent up to now is      114.3 secs

     total energy              =    -925.97469950 Ry
     Harris-Foulkes estimate   =    -925.97570460 Ry
     estimated scf accuracy    <       0.00463953 Ry

     iteration # 16     ecut=    65.00 Ry     beta= 0.70
     Davidson diagonalization with overlap
     ethr =  2.84E-07,  avg # of iterations =  5.0

     total cpu time spent up to now is      115.8 secs

     total energy              =    -925.97509991 Ry
     Harris-Foulkes estimate   =    -925.97511190 Ry
     estimated scf accuracy    <       0.00004102 Ry

     iteration # 17     ecut=    65.00 Ry     beta= 0.70
     Davidson diagonalization with overlap
     ethr =  3.66E-08,  avg # of iterations =  4.0

     total cpu time spent up to now is      116.9 secs

     total energy              =    -925.97520315 Ry
     Harris-Foulkes estimate   =    -925.97512618 Ry
     estimated scf accuracy    <       0.00015753 Ry

     iteration # 18     ecut=    65.00 Ry     beta= 0.70
     Davidson diagonalization with overlap
     ethr =  3.66E-08,  avg # of iterations =  5.0

     total cpu time spent up to now is      118.4 secs

     total energy              =    -925.97530278 Ry
     Harris-Foulkes estimate   =    -925.97526091 Ry
     estimated scf accuracy    <       0.00127041 Ry

[...]
        12           O   tau(  12) = (   0.4954565   0.6214080  -0.0000000  )
        13           O   tau(  13) = (   0.0000000   0.6229587   1.6183158  )
        14           O   tau(  14) = (   0.0000000   0.0353025   2.0803574  )

     number of k points=     4
                       cart. coord. in units 2pi/alat
        k(    1) = (   0.0000000   0.0000000   0.0000000), wk =   0.2222222
        k(    2) = (   0.0000000   0.2678739   0.0000000), wk =   0.4444444
        k(    3) = (   0.3363901   0.0000000   0.0000000), wk =   0.4444444
        k(    4) = (   0.3363901   0.2678739   0.0000000), wk =   0.8888889

     Dense  grid:    87625 G-vectors     FFT dimensions: (  36,  45, 120)

     Estimated max dynamical RAM per process >      12.46 MB

     Estimated total dynamical RAM >     398.61 MB

     Check: negative core charge=   -0.000017

     Initial potential from superposition of free atoms

     starting charge  111.99579, renormalised to  112.00000
     Starting wfcs are   80 randomized atomic wfcs

     total cpu time spent up to now is      467.8 secs

     Self-consistent Calculation

     iteration #  1     ecut=    65.00 Ry     beta= 0.70
     Davidson diagonalization with overlap
     ethr =  1.00E-06,  avg # of iterations =  7.8

     total cpu time spent up to now is      469.2 secs

     total energy              =    -920.83607397 Ry
     Harris-Foulkes estimate   =    -927.63570643 Ry
     estimated scf accuracy    <       8.52987561 Ry

     iteration #  2     ecut=    65.00 Ry     beta= 0.70
     Davidson diagonalization with overlap
     ethr =  7.62E-03,  avg # of iterations =  6.2

     total cpu time spent up to now is      470.1 secs

     total energy              =    -911.11704306 Ry
     Harris-Foulkes estimate   =    -944.20706461 Ry
     estimated scf accuracy    <     147.26941446 Ry

     iteration #  3     ecut=    65.00 Ry     beta= 0.70
     Davidson diagonalization with overlap
     ethr =  7.62E-03,  avg # of iterations =  5.8

     total cpu time spent up to now is      471.0 secs

     total energy              =    -925.69653257 Ry
     Harris-Foulkes estimate   =    -926.56729131 Ry
     estimated scf accuracy    <       2.84034608 Ry

     iteration #  4     ecut=    65.00 Ry     beta= 0.70
     Davidson diagonalization with overlap
     ethr =  2.54E-03,  avg # of iterations =  4.0

     total cpu time spent up to now is      471.4 secs

     total energy              =    -925.89537817 Ry
     Harris-Foulkes estimate   =    -926.04238321 Ry
     estimated scf accuracy    <       0.92321309 Ry

     iteration #  5     ecut=    65.00 Ry     beta= 0.70
     Davidson diagonalization with overlap
     ethr =  8.24E-04,  avg # of iterations =  3.8

     total cpu time spent up to now is      471.9 secs

     total energy              =    -925.79474507 Ry
     Harris-Foulkes estimate   =    -925.95416002 Ry
     estimated scf accuracy    <       0.52519798 Ry

     iteration #  6     ecut=    65.00 Ry     beta= 0.70
     Davidson diagonalization with overlap
     ethr =  4.69E-04,  avg # of iterations =  4.0

     total cpu time spent up to now is      472.5 secs

     total energy              =    -925.96533174 Ry
     Harris-Foulkes estimate   =    -925.99239114 Ry
     estimated scf accuracy    <       0.31205028 Ry

     iteration #  7     ecut=    65.00 Ry     beta= 0.70
     Davidson diagonalization with overlap
     ethr =  2.79E-04,  avg # of iterations =  1.0

     total cpu time spent up to now is      472.8 secs

     total energy              =    -925.91393910 Ry
     Harris-Foulkes estimate   =    -925.96797827 Ry
     estimated scf accuracy    <       0.24048002 Ry

     iteration #  8     ecut=    65.00 Ry     beta= 0.70
     Davidson diagonalization with overlap
     ethr =  2.15E-04,  avg # of iterations =  4.0

     total cpu time spent up to now is      473.3 secs

     total energy              =    -925.95522502 Ry
     Harris-Foulkes estimate   =    -925.95714969 Ry
     estimated scf accuracy    <       0.01583776 Ry

     iteration #  9     ecut=    65.00 Ry     beta= 0.70
     Davidson diagonalization with overlap
     ethr =  1.41E-05,  avg # of iterations =  3.2

     total cpu time spent up to now is      473.8 secs

     total energy              =    -925.95480835 Ry
     Harris-Foulkes estimate   =    -925.95635413 Ry
     estimated scf accuracy    <       0.01144562 Ry

     iteration # 10     ecut=    65.00 Ry     beta= 0.70
     Davidson diagonalization with overlap
     ethr =  1.02E-05,  avg # of iterations =  3.0

     total cpu time spent up to now is      474.2 secs

     total energy              =    -925.95414036 Ry
     Harris-Foulkes estimate   =    -925.95529047 Ry
     estimated scf accuracy    <       0.00543487 Ry

     iteration # 11     ecut=    65.00 Ry     beta= 0.70
     Davidson diagonalization with overlap
     ethr =  4.85E-06,  avg # of iterations =  4.0

     total cpu time spent up to now is      474.7 secs

     total energy              =    -925.95540273 Ry
     Harris-Foulkes estimate   =    -925.95547365 Ry
     estimated scf accuracy    <       0.00047829 Ry

     iteration # 12     ecut=    65.00 Ry     beta= 0.70
     Davidson diagonalization with overlap
     ethr =  4.27E-07,  avg # of iterations =  4.8

     total cpu time spent up to now is      475.2 secs

     total energy              =    -925.95535861 Ry
     Harris-Foulkes estimate   =    -925.95545958 Ry
     estimated scf accuracy    <       0.00037082 Ry

     iteration # 13     ecut=    65.00 Ry     beta= 0.70
     Davidson diagonalization with overlap
     ethr =  3.31E-07,  avg # of iterations =  4.0

     total cpu time spent up to now is      475.7 secs

     total energy              =    -925.95542519 Ry
     Harris-Foulkes estimate   =    -925.95542550 Ry
     estimated scf accuracy    <       0.00001230 Ry

     iteration # 14     ecut=    65.00 Ry     beta= 0.70
     Davidson diagonalization with overlap
     ethr =  1.10E-08,  avg # of iterations =  5.0

     total cpu time spent up to now is      476.5 secs

     total energy              =    -925.95543129 Ry
     Harris-Foulkes estimate   =    -925.95543489 Ry
     estimated scf accuracy    <       0.00004934 Ry

     iteration # 15     ecut=    65.00 Ry     beta= 0.70
     Davidson diagonalization with overlap
     ethr =  1.10E-08,  avg # of iterations =  1.0

     total cpu time spent up to now is      476.8 secs

     total energy              =    -925.95542349 Ry
     Harris-Foulkes estimate   =    -925.95543150 Ry
     estimated scf accuracy    <       0.00003965 Ry

     iteration # 16     ecut=    65.00 Ry     beta= 0.70
     Davidson diagonalization with overlap
     ethr =  1.10E-08,  avg # of iterations =  4.0

     total cpu time spent up to now is      477.4 secs

     total energy              =    -925.95542772 Ry
     Harris-Foulkes estimate   =    -925.95542808 Ry
     estimated scf accuracy    <       0.00000177 Ry

     iteration # 17     ecut=    65.00 Ry     beta= 0.70
     Davidson diagonalization with overlap
     ethr =  1.58E-09,  avg # of iterations =  3.0

     total cpu time spent up to now is      477.8 secs

     total energy              =    -925.95542755 Ry
     Harris-Foulkes estimate   =    -925.95542780 Ry
     estimated scf accuracy    <       0.00000077 Ry

     iteration # 18     ecut=    65.00 Ry     beta= 0.70
     Davidson diagonalization with overlap
     ethr =  6.84E-10,  avg # of iterations =  4.0

     total cpu time spent up to now is      478.4 secs

     total energy              =    -925.95542773 Ry
     Harris-Foulkes estimate   =    -925.95542786 Ry
     estimated scf accuracy    <       0.00000053 Ry

     iteration # 19     ecut=    65.00 Ry     beta= 0.70
     Davidson diagonalization with overlap
     ethr =  4.74E-10,  avg # of iterations =  3.5

     total cpu time spent up to now is      478.8 secs

     total energy              =    -925.95542775 Ry
     Harris-Foulkes estimate   =    -925.95542776 Ry
     estimated scf accuracy    <       0.00000012 Ry

     iteration # 20     ecut=    65.00 Ry     beta= 0.70
     Davidson diagonalization with overlap
     ethr =  1.08E-10,  avg # of iterations =  4.0

     total cpu time spent up to now is      479.4 secs

     total energy              =    -925.95542779 Ry
     Harris-Foulkes estimate   =    -925.95542780 Ry
     estimated scf accuracy    <       0.00000006 Ry

     iteration # 21     ecut=    65.00 Ry     beta= 0.70
     Davidson diagonalization with overlap
     ethr =  5.01E-11,  avg # of iterations =  3.8

     total cpu time spent up to now is      479.8 secs

     total energy              =    -925.95542779 Ry
     Harris-Foulkes estimate   =    -925.95542779 Ry
     estimated scf accuracy    <       0.00000002 Ry

     iteration # 22     ecut=    65.00 Ry     beta= 0.70
     Davidson diagonalization with overlap
     ethr =  1.76E-11,  avg # of iterations =  4.0

     total cpu time spent up to now is      480.2 secs

     total energy              =    -925.95542779 Ry
     Harris-Foulkes estimate   =    -925.95542779 Ry
     estimated scf accuracy    <       0.00000001 Ry

     iteration # 23     ecut=    65.00 Ry     beta= 0.70
     Davidson diagonalization with overlap
     ethr =  1.02E-11,  avg # of iterations =  3.2

     total cpu time spent up to now is      480.6 secs

     total energy              =    -925.95542779 Ry
     Harris-Foulkes estimate   =    -925.95542779 Ry
     estimated scf accuracy    <          7.2E-09 Ry

     iteration # 24     ecut=    65.00 Ry     beta= 0.70
     Davidson diagonalization with overlap
     ethr =  6.43E-12,  avg # of iterations =  1.8

     total cpu time spent up to now is      481.0 secs

     total energy              =    -925.95542779 Ry
     Harris-Foulkes estimate   =    -925.95542779 Ry
     estimated scf accuracy    <          5.5E-09 Ry

     iteration # 25     ecut=    65.00 Ry     beta= 0.70
     Davidson diagonalization with overlap
     ethr =  4.94E-12,  avg # of iterations =  3.2

     total cpu time spent up to now is      481.4 secs

     total energy              =    -925.95542779 Ry
     Harris-Foulkes estimate   =    -925.95542779 Ry
     estimated scf accuracy    <          1.3E-09 Ry

     iteration # 26     ecut=    65.00 Ry     beta= 0.70
     Davidson diagonalization with overlap
     ethr =  1.19E-12,  avg # of iterations =  4.2

     total cpu time spent up to now is      482.0 secs

     total energy              =    -925.95542779 Ry
     Harris-Foulkes estimate   =    -925.95542779 Ry
     estimated scf accuracy    <          1.8E-09 Ry

     iteration # 27     ecut=    65.00 Ry     beta= 0.70
     Davidson diagonalization with overlap
     ethr =  1.19E-12,  avg # of iterations =  4.2

     total cpu time spent up to now is      482.6 secs

     total energy              =    -925.95542779 Ry
     Harris-Foulkes estimate   =    -925.95542779 Ry
     estimated scf accuracy    <          5.8E-11 Ry

     iteration # 28     ecut=    65.00 Ry     beta= 0.70
     Davidson diagonalization with overlap
     ethr =  1.00E-13,  avg # of iterations =  5.0

     total cpu time spent up to now is      483.2 secs

     total energy              =    -925.95542779 Ry
     Harris-Foulkes estimate   =    -925.95542779 Ry
     estimated scf accuracy    <          3.5E-10 Ry

     iteration # 29     ecut=    65.00 Ry     beta= 0.70
     Davidson diagonalization with overlap
     ethr =  1.00E-13,  avg # of iterations =  1.2

     total cpu time spent up to now is      483.5 secs

     total energy              =    -925.95542779 Ry
     Harris-Foulkes estimate   =    -925.95542779 Ry
     estimated scf accuracy    <          2.6E-10 Ry

     iteration # 30     ecut=    65.00 Ry     beta= 0.70
     Davidson diagonalization with overlap
     ethr =  1.00E-13,  avg # of iterations =  4.0

     total cpu time spent up to now is      484.1 secs

     total energy              =    -925.95542779 Ry
     Harris-Foulkes estimate   =    -925.95542779 Ry
     estimated scf accuracy    <          3.7E-11 Ry

     iteration # 31     ecut=    65.00 Ry     beta= 0.70
     Davidson diagonalization with overlap
     ethr =  1.00E-13,  avg # of iterations =  1.0

     total cpu time spent up to now is      484.4 secs

     total energy              =    -925.95542779 Ry
     Harris-Foulkes estimate   =    -925.95542779 Ry
     estimated scf accuracy    <          1.2E-11 Ry

     iteration # 32     ecut=    65.00 Ry     beta= 0.70
     Davidson diagonalization with overlap
     ethr =  1.00E-13,  avg # of iterations =  1.0

     total cpu time spent up to now is      484.7 secs

     total energy              =    -925.95542779 Ry
     Harris-Foulkes estimate   =    -925.95542779 Ry
     estimated scf accuracy    <          9.6E-12 Ry

     iteration # 33     ecut=    65.00 Ry     beta= 0.70
     Davidson diagonalization with overlap
     ethr =  1.00E-13,  avg # of iterations =  2.2

     total cpu time spent up to now is      485.0 secs

     End of self-consistent calculation

          k = 0.0000 0.0000 0.0000 ( 10961 PWs)   bands (ev):

   -60.2769 -60.2760 -60.2674 -60.2650 -34.2607 -34.2579 -34.2498 -34.2445
   -34.1925 -34.1417 -34.1215 -34.0908 -34.0884 -34.0726 -34.0590 -34.0567
   -13.6149 -13.4912 -12.5998 -12.4668 -12.3736 -12.3395 -11.9678 -11.9634
   -11.8314 -11.8112  -0.4097  -0.3986  -0.3756  -0.2543  -0.1295   0.3077
     0.9959   1.0557   1.2839   1.3286   1.4640   1.5041   1.7114   1.7881
     1.8000   1.9302   2.0207   2.0308   2.1143   2.2378   2.2883   2.3867
     2.4140   2.8205   2.9066   2.9384   2.9633   3.1421   3.1967   3.3129

          k = 0.0000 0.2679 0.0000 ( 10948 PWs)   bands (ev):

   -60.2776 -60.2753 -60.2667 -60.2648 -34.2624 -34.2596 -34.2528 -34.2475
   -34.1921 -34.1414 -34.1215 -34.0906 -34.0883 -34.0726 -34.0590 -34.0566
   -13.5413 -13.4299 -12.5237 -12.4340 -12.3703 -12.3170 -11.9837 -11.9530
   -11.8128 -11.7816  -0.4594  -0.4478  -0.4170  -0.3027  -0.2575  -0.0190
     0.2167   0.4076   0.4163   0.6068   1.0474   1.1968   1.2586   1.6854
     1.8084   1.9933   2.1504   2.1914   2.3596   2.4761   2.5990   2.7054
     2.9467   2.9505   2.9940   3.0873   3.1147   3.3850   3.4696   3.5851

          k = 0.3364 0.0000 0.0000 ( 10913 PWs)   bands (ev):

   -60.2728 -60.2708 -60.2679 -60.2655 -34.2543 -34.2520 -34.2475 -34.2437
   -34.1896 -34.1654 -34.1504 -34.1427 -34.1010 -34.0951 -34.0805 -34.0712
   -13.0654 -12.9246 -12.4874 -12.3271 -12.3235 -12.2936 -11.9165 -11.9047
   -11.8871 -11.8415  -0.9044  -0.8289  -0.1506  -0.1186  -0.0348   0.3141
     0.4089   0.8130   0.8420   1.1615   1.1764   1.2118   1.5666   1.6800
     1.7201   1.8347   1.8822   1.9753   1.9953   2.0563   2.1695   2.2245
     2.2786   2.6192   2.8871   2.9930   3.0665   3.2101   3.4432   3.5393

          k = 0.3364 0.2679 0.0000 ( 10935 PWs)   bands (ev):

   -60.2729 -60.2712 -60.2675 -60.2657 -34.2563 -34.2540 -34.2502 -34.2463
   -34.1893 -34.1652 -34.1501 -34.1425 -34.1009 -34.0951 -34.0805 -34.0712
   -13.0012 -12.8791 -12.4388 -12.3230 -12.3038 -12.2732 -11.9086 -11.8813
   -11.8250 -11.8015  -0.9061  -0.8275  -0.2108  -0.1994  -0.1337   0.1281
     0.2201   0.3358   0.4043   0.5760   0.6392   0.8912   1.1748   1.2434
     1.3806   1.4049   1.5242   1.6025   1.7465   2.2195   2.4419   2.6333
     2.8726   2.8762   3.2593   3.4427   3.4968   3.6196   3.6695   3.6934

     highest occupied level (ev):     3.6934

!    total energy              =    -925.95542779 Ry
     Harris-Foulkes estimate   =    -925.95542779 Ry
     estimated scf accuracy    <          7.1E-13 Ry

     The total energy is the sum of the following terms:

     one-electron contribution =    -584.25662089 Ry
     hartree contribution      =     331.95534640 Ry
     xc contribution           =    -178.29112507 Ry
     ewald contribution        =    -495.36302823 Ry

     convergence has been achieved in  33 iterations

     Forces acting on atoms (cartesian axes, Ry/au):

     atom    1 type  1   force =     0.00000000    0.00060933    0.00013091
     atom    2 type  1   force =     0.00000000   -0.00060933   -0.00013091
     atom    3 type  1   force =     0.00000000   -0.00060933    0.00013091
     atom    4 type  1   force =     0.00000000    0.00060933   -0.00013091
     atom    5 type  2   force =    -0.00000000   -0.00059806    0.00048344
     atom    6 type  2   force =     0.00000000    0.00059806   -0.00048344
     atom    7 type  2   force =     0.00000000    0.00059806    0.00048344
     atom    8 type  2   force =     0.00000000   -0.00059806   -0.00048344
     atom    9 type  2   force =    -0.00000000   -0.00033623   -0.00055846
     atom   10 type  2   force =     0.00000000    0.00033623    0.00055846
     atom   11 type  2   force =     0.00000000    0.00033623   -0.00055846
     atom   12 type  2   force =     0.00000000   -0.00045085   -0.00000000
     atom   13 type  2   force =     0.00000000    0.00045085    0.00000000
     atom   14 type  2   force =    -0.00000000   -0.00033623    0.00055846

     Total force =     0.002455     Total SCF correction =     0.000003


     Computing stress (Cartesian axis) and pressure

          total   stress  (Ry/bohr**3)                   (kbar)     P=  -23.33
  -0.00012149   0.00000000   0.00000000        -17.87      0.00      0.00
   0.00000000  -0.00023699   0.00000000          0.00    -34.86      0.00
   0.00000000   0.00000000  -0.00011738          0.00      0.00    -17.27


     Writing output data file v2o5.save/

     init_run     :      0.97s CPU      0.98s WALL (       2 calls)
     electrons    :    447.74s CPU    454.70s WALL (      19 calls)
     update_pot   :      8.19s CPU      8.21s WALL (      17 calls)
     forces       :      7.63s CPU      7.72s WALL (      19 calls)
     stress       :     13.20s CPU     13.22s WALL (      19 calls)

     Called by init_run:
     wfcinit      :      0.40s CPU      0.41s WALL (       2 calls)
     potinit      :      0.21s CPU      0.21s WALL (       2 calls)
     hinit0       :      0.33s CPU      0.34s WALL (       2 calls)

     Called by electrons:
     c_bands      :    406.89s CPU    413.13s WALL (     610 calls)
     sum_band     :     20.31s CPU     20.69s WALL (     610 calls)
     v_of_rho     :     19.44s CPU     19.57s WALL (     628 calls)
     mix_rho      :      1.38s CPU      1.39s WALL (     610 calls)

     Called by c_bands:
     init_us_2    :      4.03s CPU      4.11s WALL (    5040 calls)
     cegterg      :    395.21s CPU    401.19s WALL (    2440 calls)

     Called by sum_band:

     Called by *egterg:
     h_psi        :    200.87s CPU    204.07s WALL (   10442 calls)
     g_psi        :      0.64s CPU      0.64s WALL (    7994 calls)
     cdiaghg      :     83.92s CPU     85.92s WALL (   10362 calls)

     Called by h_psi:
     h_psi:pot    :    199.98s CPU    203.16s WALL (   10442 calls)
     h_psi:calbec :     59.53s CPU     61.11s WALL (   10442 calls)
     vloc_psi     :     95.70s CPU     97.24s WALL (   10442 calls)
     add_vuspsi   :     44.68s CPU     44.76s WALL (   10442 calls)

     General routines
     calbec       :     62.79s CPU     64.48s WALL (   10822 calls)
     fft          :     10.72s CPU     10.80s WALL (   40890 calls)
     ffts         :      0.14s CPU      0.15s WALL (     610 calls)
     fftw         :    104.65s CPU    106.38s WALL (  875760 calls)

     Parallel routines
     fft_scatt_xy :      6.83s CPU      6.92s WALL (  917260 calls)
     fft_scatt_yz :     60.21s CPU     61.21s WALL (  917260 calls)

     PWSCF        :   7m58.44s CPU   8m 5.82s WALL


   This run was terminated on:   2: 4: 0  19May2024            

=------------------------------------------------------------------------------=
   JOB DONE.
=------------------------------------------------------------------------------=
