
     Program PWSCF v.6.4.1 starts on 18May2024 at 20:12: 9 

     This program is part of the open-source Quantum ESPRESSO suite
     for quantum simulation of materials; please cite
         "P. Giannozzi et al., J. Phys.:Condens. Matter 21 395502 (2009);
         "P. Giannozzi et al., J. Phys.:Condens. Matter 29 465901 (2017);
          URL http://www.quantum-espresso.org", 
     in publications or presentations arising from this work. More details at
     http://www.quantum-espresso.org/quote

     Parallel version (MPI), running on    32 processors

     MPI processes distributed on     1 nodes
     R & G space division:  proc/nbgrp/npool/nimage =      32
     Reading input from v2o5.vc-rlx.in

     Current dimensions of program PWSCF are:
     Max number of different atomic species (ntypx) = 10
     Max number of k-points (npk) =  40000
     Max angular momentum in pseudopotentials (lmaxx) =  3

     -------------------------------------------------
     Parameters for Dispersion (Grimme-D2) Correction:
     -------------------------------------------------
       atom      VdW radius       C_6     

        V          2.952        374.666
        O          2.536         24.284

     Subspace diagonalization in iterative solution of the eigenvalue problem:
     one sub-group per band group will be used
     ELPA distributed-memory algorithm (size of sub-group:  4*  4 procs)


     Parallelization info
     --------------------
     sticks:   dense  smooth     PW     G-vecs:    dense   smooth      PW
     Min          30      30      8                 2116     2116     308
     Max          31      31      9                 2129     2129     319
     Sum         985     985    277                67967    67967   10019



     bravais-lattice index     =            8
     lattice parameter (alat)  =       6.6827  a.u.
     unit-cell volume          =    1233.5773 (a.u.)^3
     number of atoms/cell      =           14
     number of atomic types    =            2
     number of electrons       =       112.00
     number of Kohn-Sham states=           56
     kinetic-energy cutoff     =      55.0000  Ry
     charge density cutoff     =     220.0000  Ry
     convergence threshold     =      1.0E-10
     mixing beta               =       0.7000
     number of iterations used =            8  plain     mixing
     Exchange-correlation      = PBE ( 1  4  3  4 0 0)
     nstep                     =          500


     celldm(1)=   6.682682  celldm(2)=   1.263659  celldm(3)=   3.271025
     celldm(4)=   0.000000  celldm(5)=   0.000000  celldm(6)=   0.000000

     crystal axes: (cart. coord. in units of alat)
               a(1) = (   1.000000   0.000000   0.000000 )  
               a(2) = (   0.000000   1.263659   0.000000 )  
               a(3) = (   0.000000   0.000000   3.271025 )  

     reciprocal axes: (cart. coord. in units 2 pi/alat)
               b(1) = (  1.000000  0.000000  0.000000 )  
               b(2) = (  0.000000  0.791352  0.000000 )  
               b(3) = (  0.000000  0.000000  0.305715 )  


     PseudoPot. # 1 for V  read from file:
     /home/mpicuntureo/pseudos/v.nc.upf
     MD5 check sum: 40fb93c06b4f9d8c28c5ccd071294a04
     Pseudo is Norm-conserving + core correction, Zval = 13.0
     Generated using ONCVPSP code by D. R. Hamann
     Using radial grid of 1536 points,  6 beta functions with: 
                l(1) =   0
                l(2) =   0
                l(3) =   1
                l(4) =   1
                l(5) =   2
                l(6) =   2

     PseudoPot. # 2 for O  read from file:
     /home/mpicuntureo/pseudos/o.nc.upf
     MD5 check sum: 3e3f909f7470e8921608ab6b1f57bbae
     Pseudo is Norm-conserving + core correction, Zval =  6.0
     Generated using ONCVPSP code by D. R. Hamann
     Using radial grid of  936 points,  5 beta functions with: 
                l(1) =   0
                l(2) =   0
                l(3) =   1
                l(4) =   1
                l(5) =   2

     atomic species   valence    mass     pseudopotential
        V             13.00    50.94150     V ( 1.00)
        O              6.00    15.99940     O ( 1.00)

      8 Sym. Ops., with inversion, found ( 4 have fractional translation)



   Cartesian axes

     site n.     atom                  positions (alat units)
         1           V   tau(   1) = (   0.0000000   0.4838420   2.1198804  )
         2           V   tau(   2) = (   0.5000000   0.7798175   2.7866567  )
         3           V   tau(   3) = (   0.5000000   0.7798175   0.4843680  )
         4           V   tau(   4) = (   0.0000000   0.4838420   1.1511443  )
         5           O   tau(   5) = (   0.5000000   0.6221939   2.2285187  )
         6           O   tau(   6) = (   0.0000000   0.6414656   2.6780184  )
         7           O   tau(   7) = (   0.0000000   0.6414656   0.5930063  )
         8           O   tau(   8) = (   0.5000000   0.6221939   1.0425060  )
         9           O   tau(   9) = (   0.0000000   0.0364742   1.1584929  )
        10           O   tau(  10) = (   0.5000000   1.2271853   0.4770194  )
        11           O   tau(  11) = (   0.5000000   1.2271853   2.7940053  )
        12           O   tau(  12) = (   0.5000000   0.6433842   0.0000000  )
        13           O   tau(  13) = (   0.0000000   0.6202753   1.6355124  )
        14           O   tau(  14) = (   0.0000000   0.0364742   2.1125318  )

     number of k points=     4
                       cart. coord. in units 2pi/alat
        k(    1) = (   0.0000000   0.0000000   0.0000000), wk =   0.2222222
        k(    2) = (   0.0000000   0.2637841   0.0000000), wk =   0.4444444
        k(    3) = (   0.3333333   0.0000000   0.0000000), wk =   0.4444444
        k(    4) = (   0.3333333   0.2637841   0.0000000), wk =   0.8888889

     Dense  grid:    67967 G-vectors     FFT dimensions: (  32,  40, 108)

     Estimated max dynamical RAM per process >      10.45 MB

     Estimated total dynamical RAM >     334.28 MB

     Check: negative core charge=   -0.000084

     Initial potential from superposition of free atoms

     starting charge  111.99579, renormalised to  112.00000
     Starting wfcs are   80 randomized atomic wfcs

     total cpu time spent up to now is        0.7 secs

     Self-consistent Calculation

     iteration #  1     ecut=    55.00 Ry     beta= 0.70
     Davidson diagonalization with overlap
     ethr =  1.00E-02,  avg # of iterations =  2.0

     total cpu time spent up to now is        1.1 secs

     total energy              =    -917.20359637 Ry
     Harris-Foulkes estimate   =    -923.27341523 Ry
     estimated scf accuracy    <       7.63357210 Ry

     iteration #  2     ecut=    55.00 Ry     beta= 0.70
     Davidson diagonalization with overlap
     ethr =  6.82E-03,  avg # of iterations =  6.2

     total cpu time spent up to now is        2.1 secs

     total energy              =    -907.79387844 Ry
     Harris-Foulkes estimate   =    -937.54197245 Ry
     estimated scf accuracy    <     132.39388953 Ry

     iteration #  3     ecut=    55.00 Ry     beta= 0.70
     Davidson diagonalization with overlap
     ethr =  6.82E-03,  avg # of iterations =  5.8

     total cpu time spent up to now is        3.0 secs

     total energy              =    -921.58968669 Ry
     Harris-Foulkes estimate   =    -922.32950508 Ry
     estimated scf accuracy    <       2.55380665 Ry

     iteration #  4     ecut=    55.00 Ry     beta= 0.70
     Davidson diagonalization with overlap
     ethr =  2.28E-03,  avg # of iterations =  4.0

     total cpu time spent up to now is        3.4 secs

     total energy              =    -921.71969947 Ry
     Harris-Foulkes estimate   =    -921.85719019 Ry
     estimated scf accuracy    <       0.89477679 Ry

     iteration #  5     ecut=    55.00 Ry     beta= 0.70
     Davidson diagonalization with overlap
     ethr =  7.99E-04,  avg # of iterations =  4.0

     total cpu time spent up to now is        3.8 secs

     total energy              =    -921.64588277 Ry
     Harris-Foulkes estimate   =    -921.78022264 Ry
     estimated scf accuracy    <       0.45549886 Ry

     iteration #  6     ecut=    55.00 Ry     beta= 0.70
     Davidson diagonalization with overlap
     ethr =  4.07E-04,  avg # of iterations =  4.0

     total cpu time spent up to now is        4.3 secs

     total energy              =    -921.78845919 Ry
     Harris-Foulkes estimate   =    -921.80240134 Ry
     estimated scf accuracy    <       0.19263831 Ry

     iteration #  7     ecut=    55.00 Ry     beta= 0.70
     Davidson diagonalization with overlap
     ethr =  1.72E-04,  avg # of iterations =  2.8

     total cpu time spent up to now is        4.6 secs

     total energy              =    -921.75864793 Ry
     Harris-Foulkes estimate   =    -921.79133316 Ry
     estimated scf accuracy    <       0.15932795 Ry

     iteration #  8     ecut=    55.00 Ry     beta= 0.70
     Davidson diagonalization with overlap
     ethr =  1.42E-04,  avg # of iterations =  3.8

     total cpu time spent up to now is        4.9 secs

     total energy              =    -921.77703942 Ry
     Harris-Foulkes estimate   =    -921.77797171 Ry
     estimated scf accuracy    <       0.00367788 Ry

     iteration #  9     ecut=    55.00 Ry     beta= 0.70
     Davidson diagonalization with overlap
     ethr =  3.28E-06,  avg # of iterations =  5.5

     total cpu time spent up to now is        5.5 secs

     total energy              =    -921.77974127 Ry
     Harris-Foulkes estimate   =    -921.78001519 Ry
     estimated scf accuracy    <       0.00149837 Ry

     iteration # 10     ecut=    55.00 Ry     beta= 0.70
     Davidson diagonalization with overlap
     ethr =  1.34E-06,  avg # of iterations =  3.5

     total cpu time spent up to now is        5.8 secs

     total energy              =    -921.77963268 Ry
     Harris-Foulkes estimate   =    -921.77981411 Ry
     estimated scf accuracy    <       0.00070967 Ry

     iteration # 11     ecut=    55.00 Ry     beta= 0.70
     Davidson diagonalization with overlap
     ethr =  6.34E-07,  avg # of iterations =  4.2

     total cpu time spent up to now is        6.3 secs

     total energy              =    -921.77980154 Ry
     Harris-Foulkes estimate   =    -921.77983368 Ry
     estimated scf accuracy    <       0.00019353 Ry

     iteration # 12     ecut=    55.00 Ry     beta= 0.70
     Davidson diagonalization with overlap
     ethr =  1.73E-07,  avg # of iterations =  2.5

     total cpu time spent up to now is        6.5 secs

     total energy              =    -921.77978661 Ry
     Harris-Foulkes estimate   =    -921.77980927 Ry
     estimated scf accuracy    <       0.00012015 Ry

     iteration # 13     ecut=    55.00 Ry     beta= 0.70
     Davidson diagonalization with overlap
     ethr =  1.07E-07,  avg # of iterations =  4.0

     total cpu time spent up to now is        6.9 secs

     total energy              =    -921.77979752 Ry
     Harris-Foulkes estimate   =    -921.77980872 Ry
     estimated scf accuracy    <       0.00008400 Ry

     iteration # 14     ecut=    55.00 Ry     beta= 0.70
     Davidson diagonalization with overlap
     ethr =  7.50E-08,  avg # of iterations =  1.0

     total cpu time spent up to now is        7.2 secs

     total energy              =    -921.77978650 Ry
     Harris-Foulkes estimate   =    -921.77979917 Ry
     estimated scf accuracy    <       0.00005397 Ry

     iteration # 15     ecut=    55.00 Ry     beta= 0.70
     Davidson diagonalization with overlap
     ethr =  4.82E-08,  avg # of iterations =  4.0

     total cpu time spent up to now is        7.6 secs

     total energy              =    -921.77979785 Ry
     Harris-Foulkes estimate   =    -921.77980104 Ry
     estimated scf accuracy    <       0.00001651 Ry

     iteration # 16     ecut=    55.00 Ry     beta= 0.70
     Davidson diagonalization with overlap
     ethr =  1.47E-08,  avg # of iterations =  2.5

     total cpu time spent up to now is        7.9 secs

     total energy              =    -921.77979688 Ry
     Harris-Foulkes estimate   =    -921.77979848 Ry
     estimated scf accuracy    <       0.00000719 Ry

     iteration # 17     ecut=    55.00 Ry     beta= 0.70
     Davidson diagonalization with overlap
     ethr =  6.42E-09,  avg # of iterations =  4.0

     total cpu time spent up to now is        8.3 secs

     total energy              =    -921.77979893 Ry
     Harris-Foulkes estimate   =    -921.77979909 Ry
     estimated scf accuracy    <       0.00000140 Ry

     iteration # 18     ecut=    55.00 Ry     beta= 0.70
     Davidson diagonalization with overlap
     ethr =  1.25E-09,  avg # of iterations =  1.8

     total cpu time spent up to now is        8.6 secs

     total energy              =    -921.77979863 Ry
     Harris-Foulkes estimate   =    -921.77979896 Ry
     estimated scf accuracy    <       0.00000098 Ry

     iteration # 19     ecut=    55.00 Ry     beta= 0.70
     Davidson diagonalization with overlap
     ethr =  8.74E-10,  avg # of iterations =  4.0

     total cpu time spent up to now is        9.0 secs

     total energy              =    -921.77979888 Ry
     Harris-Foulkes estimate   =    -921.77979893 Ry
     estimated scf accuracy    <       0.00000030 Ry

     iteration # 20     ecut=    55.00 Ry     beta= 0.70
     Davidson diagonalization with overlap
     ethr =  2.69E-10,  avg # of iterations =  1.2

     total cpu time spent up to now is        9.2 secs

     total energy              =    -921.77979886 Ry
     Harris-Foulkes estimate   =    -921.77979889 Ry
     estimated scf accuracy    <       0.00000019 Ry

     iteration # 21     ecut=    55.00 Ry     beta= 0.70
     Davidson diagonalization with overlap
     ethr =  1.65E-10,  avg # of iterations =  4.0

     total cpu time spent up to now is        9.6 secs

     total energy              =    -921.77979889 Ry
     Harris-Foulkes estimate   =    -921.77979889 Ry
     estimated scf accuracy    <          8.2E-09 Ry

     iteration # 22     ecut=    55.00 Ry     beta= 0.70
     Davidson diagonalization with overlap
     ethr =  7.29E-12,  avg # of iterations =  4.5

     total cpu time spent up to now is       10.0 secs

     total energy              =    -921.77979889 Ry
     Harris-Foulkes estimate   =    -921.77979889 Ry
     estimated scf accuracy    <          6.6E-09 Ry

     iteration # 23     ecut=    55.00 Ry     beta= 0.70
     Davidson diagonalization with overlap
     ethr =  5.91E-12,  avg # of iterations =  2.5

     total cpu time spent up to now is       10.3 secs

     total energy              =    -921.77979889 Ry
     Harris-Foulkes estimate   =    -921.77979889 Ry
     estimated scf accuracy    <       0.00000001 Ry

     iteration # 24     ecut=    55.00 Ry     beta= 0.70
     Davidson diagonalization with overlap
     ethr =  5.91E-12,  avg # of iterations =  1.0

     total cpu time spent up to now is       10.5 secs

     total energy              =    -921.77979889 Ry
     Harris-Foulkes estimate   =    -921.77979889 Ry
     estimated scf accuracy    <          9.1E-09 Ry

     iteration # 25     ecut=    55.00 Ry     beta= 0.70
     Davidson diagonalization with overlap
     ethr =  5.91E-12,  avg # of iterations =  1.5

     total cpu time spent up to now is       10.8 secs

     total energy              =    -921.77979889 Ry
     Harris-Foulkes estimate   =    -921.77979889 Ry
     estimated scf accuracy    <          6.3E-09 Ry

     iteration # 26     ecut=    55.00 Ry     beta= 0.70
     Davidson diagonalization with overlap
     ethr =  5.60E-12,  avg # of iterations =  1.0

     total cpu time spent up to now is       11.0 secs

     total energy              =    -921.77979889 Ry
     Harris-Foulkes estimate   =    -921.77979889 Ry
     estimated scf accuracy    <          7.1E-09 Ry

     iteration # 27     ecut=    55.00 Ry     beta= 0.70
     Davidson diagonalization with overlap
     ethr =  5.60E-12,  avg # of iterations =  1.0

     total cpu time spent up to now is       11.2 secs

     total energy              =    -921.77979889 Ry
     Harris-Foulkes estimate   =    -921.77979889 Ry
     estimated scf accuracy    <          5.6E-09 Ry

     iteration # 28     ecut=    55.00 Ry     beta= 0.70
     Davidson diagonalization with overlap
     ethr =  5.00E-12,  avg # of iterations =  1.0

     total cpu time spent up to now is       11.5 secs

     total energy              =    -921.77979889 Ry
     Harris-Foulkes estimate   =    -921.77979889 Ry
     estimated scf accuracy    <          6.5E-09 Ry

     iteration # 29     ecut=    55.00 Ry     beta= 0.70
     Davidson diagonalization with overlap
     ethr =  5.00E-12,  avg # of iterations =  1.0

     total cpu time spent up to now is       11.7 secs

     total energy              =    -921.77979889 Ry
     Harris-Foulkes estimate   =    -921.77979889 Ry
     estimated scf accuracy    <          7.7E-09 Ry

     iteration # 30     ecut=    55.00 Ry     beta= 0.70
     Davidson diagonalization with overlap
     ethr =  5.00E-12,  avg # of iterations =  5.0

     total cpu time spent up to now is       12.6 secs

     total energy              =    -921.77979889 Ry
     Harris-Foulkes estimate   =    -921.77979890 Ry
     estimated scf accuracy    <       0.00000004 Ry

     iteration # 31     ecut=    55.00 Ry     beta= 0.70
     Davidson diagonalization with overlap
     ethr =  5.00E-12,  avg # of iterations =  4.8

     total cpu time spent up to now is       13.5 secs

     total energy              =    -921.77979889 Ry
     Harris-Foulkes estimate   =    -921.77979889 Ry
     estimated scf accuracy    <          4.7E-10 Ry

     iteration # 32     ecut=    55.00 Ry     beta= 0.70
     Davidson diagonalization with overlap
     ethr =  4.22E-13,  avg # of iterations =  4.0

     total cpu time spent up to now is       14.1 secs

     End of self-consistent calculation

          k = 0.0000 0.0000 0.0000 (  8487 PWs)   bands (ev):

   -60.1151 -60.1108 -60.1101 -60.1060 -34.1876 -34.1854 -34.1779 -34.1725
   -34.0967 -34.0441 -34.0179 -33.9900 -33.9880 -33.9684 -33.9561 -33.9536
   -13.5951 -13.4740 -12.5050 -12.3852 -12.2986 -12.2540 -11.8669 -11.8634
   -11.7049 -11.6853  -0.4288  -0.4196  -0.3565  -0.2560  -0.0693   0.3655
     1.0620   1.1172   1.3383   1.3470   1.5691   1.6081   1.8720   1.8772
     1.9257   2.0192   2.0965   2.1139   2.1967   2.2945   2.3928   2.5154
     2.5251   2.9226   3.0396   3.0654   3.1135   3.3458   3.3737   3.4318

          k = 0.0000 0.2638 0.0000 (  8490 PWs)   bands (ev):

   -60.1176 -60.1131 -60.1052 -60.1046 -34.1891 -34.1868 -34.1814 -34.1760
   -34.0960 -34.0437 -34.0177 -33.9897 -33.9875 -33.9684 -33.9562 -33.9537
   -13.5243 -13.4137 -12.4429 -12.3588 -12.2955 -12.2359 -11.8750 -11.8516
   -11.6757 -11.6507  -0.4744  -0.4619  -0.3933  -0.3005  -0.2339   0.0406
     0.2942   0.4726   0.5230   0.6738   1.1681   1.3097   1.3678   1.8111
     1.8752   2.0779   2.2270   2.3205   2.4856   2.5634   2.6996   2.8025
     3.0487   3.0521   3.0982   3.2143   3.2340   3.5238   3.5918   3.7432

          k = 0.3333 0.0000 0.0000 (  8476 PWs)   bands (ev):

   -60.1118 -60.1079 -60.1067 -60.1036 -34.1815 -34.1790 -34.1755 -34.1714
   -34.0930 -34.0665 -34.0538 -34.0447 -33.9987 -33.9939 -33.9783 -33.9676
   -13.0194 -12.8822 -12.4015 -12.2484 -12.2368 -12.2060 -11.8057 -11.7964
   -11.7615 -11.7216  -0.9366  -0.8617  -0.0983  -0.0939   0.0347   0.3522
     0.4822   0.8727   0.8831   1.1861   1.2204   1.2654   1.6266   1.7611
     1.7777   1.9468   2.0216   2.0424   2.1247   2.1900   2.2788   2.3268
     2.3645   2.7597   3.0582   3.1323   3.2210   3.4188   3.5862   3.6536

          k = 0.3333 0.2638 0.0000 (  8498 PWs)   bands (ev):

   -60.1119 -60.1103 -60.1079 -60.1034 -34.1836 -34.1812 -34.1785 -34.1744
   -34.0925 -34.0664 -34.0534 -34.0444 -33.9989 -33.9937 -33.9783 -33.9675
   -12.9583 -12.8367 -12.3628 -12.2454 -12.2198 -12.1901 -11.7923 -11.7721
   -11.6948 -11.6762  -0.9372  -0.8617  -0.1704  -0.1526  -0.0842   0.1641
     0.2601   0.4001   0.4528   0.6868   0.7430   0.9532   1.3027   1.3274
     1.4341   1.4784   1.6061   1.7003   1.8618   2.3130   2.5358   2.7312
     3.0012   3.0014   3.3958   3.5860   3.6180   3.7746   3.8158   3.8221

     highest occupied level (ev):     3.8221

!    total energy              =    -921.77979889 Ry
     Harris-Foulkes estimate   =    -921.77979889 Ry
     estimated scf accuracy    <          3.2E-11 Ry

     The total energy is the sum of the following terms:

     one-electron contribution =    -590.00598563 Ry
     hartree contribution      =     334.03546466 Ry
     xc contribution           =    -173.93763536 Ry
     ewald contribution        =    -491.74104657 Ry
     Dispersion Correction     =      -0.13059599 Ry

     convergence has been achieved in  32 iterations

     Forces acting on atoms (cartesian axes, Ry/au):

     atom    1 type  1   force =    -0.00000000   -0.01217208    0.00390004
     atom    2 type  1   force =     0.00000000    0.01217208   -0.00390004
     atom    3 type  1   force =     0.00000000    0.01217208    0.00390004
     atom    4 type  1   force =     0.00000000   -0.01217208   -0.00390004
     atom    5 type  2   force =     0.00000000    0.00049849    0.00389871
     atom    6 type  2   force =     0.00000000   -0.00049849   -0.00389871
     atom    7 type  2   force =     0.00000000   -0.00049849    0.00389871
     atom    8 type  2   force =     0.00000000    0.00049849   -0.00389871
     atom    9 type  2   force =     0.00000000    0.01161155   -0.00115274
     atom   10 type  2   force =     0.00000000   -0.01161155    0.00115274
     atom   11 type  2   force =     0.00000000   -0.01161155   -0.00115274
     atom   12 type  2   force =     0.00000000   -0.00027561    0.00000000
     atom   13 type  2   force =     0.00000000    0.00027561    0.00000000
     atom   14 type  2   force =     0.00000000    0.01161155    0.00115274

     Total force =     0.035497     Total SCF correction =     0.000013


     Computing stress (Cartesian axis) and pressure

          total   stress  (Ry/bohr**3)                   (kbar)     P= -261.96
  -0.00172048   0.00000000   0.00000000       -253.09      0.00      0.00
   0.00000000  -0.00182084   0.00000000          0.00   -267.86      0.00
   0.00000000   0.00000000  -0.00180094          0.00      0.00   -264.93


     BFGS Geometry Optimization

     number of scf cycles    =   1
     number of bfgs steps    =   0

     enthalpy new            =    -921.7797988917 Ry

     new trust radius        =       0.3197610327 bohr
     new conv_thr            =            1.0E-10 Ry

     new unit-cell volume =   1076.04841 a.u.^3 (   159.45392 Ang^3 )
     density =      3.78816 g/cm^3

CELL_PARAMETERS (alat=  6.68268247)
   0.956987931   0.000000000   0.000000000
   0.000000000   1.206136371   0.000000000
   0.000000000   0.000000000   3.123751373

ATOMIC_POSITIONS (crystal)
V       -0.000000000   0.381448133   0.648256803
V        0.500000008   0.618551883   0.851743220
V        0.500000008   0.618551883   0.148256796
V        0.000000000   0.381448133   0.351743212
O        0.500000008   0.492433720   0.681469051
O        0.000000000   0.507566295   0.818530971
O        0.000000000   0.507566295   0.181469045
O        0.500000008   0.492433720   0.318530963
O        0.000000000   0.030238942   0.354115465
O        0.500000008   0.969761073   0.145884544
O        0.500000008   0.969761073   0.854115472
O        0.500000008   0.509110989   0.000000000
O        0.000000000   0.490889027   0.500000008
O        0.000000000   0.030238942   0.645884552



     Writing output data file v2o5.save/
     NEW-OLD atomic charge density approx. for the potential

     Check: negative core charge=   -0.000041
     extrapolated charge   95.60430, renormalised to  112.00000

     total cpu time spent up to now is       15.4 secs

     Self-consistent Calculation

     iteration #  1     ecut=    55.00 Ry     beta= 0.70
     Davidson diagonalization with overlap
     c_bands:  1 eigenvalues not converged
     c_bands:  1 eigenvalues not converged
     c_bands:  1 eigenvalues not converged
     c_bands:  1 eigenvalues not converged
     ethr =  1.00E-06,  avg # of iterations = 20.0

     total cpu time spent up to now is       18.3 secs

     total energy              =    -785.22481523 Ry
     Harris-Foulkes estimate   =   -1004.84320071 Ry
     estimated scf accuracy    <     145.03312124 Ry

     iteration #  2     ecut=    55.00 Ry     beta= 0.70
     Davidson diagonalization with overlap
     ethr =  1.00E-02,  avg # of iterations =  7.5

     total cpu time spent up to now is       20.1 secs

     total energy              =    -857.28737622 Ry
     Harris-Foulkes estimate   =   -1112.26968925 Ry
     estimated scf accuracy    <     725.69923624 Ry

     iteration #  3     ecut=    55.00 Ry     beta= 0.70
     Davidson diagonalization with overlap
     ethr =  1.00E-02,  avg # of iterations =  7.0

     total cpu time spent up to now is       21.4 secs

     total energy              =    -933.18506637 Ry
     Harris-Foulkes estimate   =    -948.83591660 Ry
     estimated scf accuracy    <      68.29931852 Ry

     iteration #  4     ecut=    55.00 Ry     beta= 0.70
     Davidson diagonalization with overlap
     ethr =  1.00E-02,  avg # of iterations =  3.8

     total cpu time spent up to now is       22.0 secs

     total energy              =    -927.59279659 Ry
     Harris-Foulkes estimate   =    -935.36590896 Ry
     estimated scf accuracy    <      36.69958318 Ry

     iteration #  5     ecut=    55.00 Ry     beta= 0.70
     Davidson diagonalization with overlap
     ethr =  1.00E-02,  avg # of iterations =  1.0

     total cpu time spent up to now is       22.4 secs

     total energy              =    -922.79841204 Ry
     Harris-Foulkes estimate   =    -928.14475873 Ry
     estimated scf accuracy    <      21.92794722 Ry

     iteration #  6     ecut=    55.00 Ry     beta= 0.70
     Davidson diagonalization with overlap
     ethr =  1.00E-02,  avg # of iterations =  2.2

     total cpu time spent up to now is       22.8 secs

     total energy              =    -922.66605241 Ry
     Harris-Foulkes estimate   =    -923.67729907 Ry
     estimated scf accuracy    <       9.31145211 Ry

     iteration #  7     ecut=    55.00 Ry     beta= 0.70
     Davidson diagonalization with overlap
     ethr =  8.31E-03,  avg # of iterations =  1.0

     total cpu time spent up to now is       23.2 secs

     total energy              =    -921.93881435 Ry
     Harris-Foulkes estimate   =    -922.84428566 Ry
     estimated scf accuracy    <       7.40771281 Ry

     iteration #  8     ecut=    55.00 Ry     beta= 0.70
     Davidson diagonalization with overlap
     ethr =  6.61E-03,  avg # of iterations =  1.5

     total cpu time spent up to now is       23.6 secs

     total energy              =    -921.07560269 Ry
     Harris-Foulkes estimate   =    -922.11354857 Ry
     estimated scf accuracy    <       4.96002737 Ry

     iteration #  9     ecut=    55.00 Ry     beta= 0.70
     Davidson diagonalization with overlap
     ethr =  4.43E-03,  avg # of iterations =  4.2

     total cpu time spent up to now is       24.2 secs

     total energy              =    -921.94578629 Ry
     Harris-Foulkes estimate   =    -921.67525629 Ry
     estimated scf accuracy    <       0.85128887 Ry

     iteration # 10     ecut=    55.00 Ry     beta= 0.70
     Davidson diagonalization with overlap
     ethr =  7.60E-04,  avg # of iterations =  4.0

     negative rho (up, down):  5.110E-03 0.000E+00

     total cpu time spent up to now is       24.9 secs

     total energy              =    -921.14628400 Ry
     Harris-Foulkes estimate   =    -922.13906377 Ry
     estimated scf accuracy    <       1.37369714 Ry

     iteration # 11     ecut=    55.00 Ry     beta= 0.70
     Davidson diagonalization with overlap
     ethr =  7.60E-04,  avg # of iterations =  5.5

     total cpu time spent up to now is       26.0 secs

     total energy              =    -922.96325112 Ry
     Harris-Foulkes estimate   =    -923.14286871 Ry
     estimated scf accuracy    <      13.19132490 Ry

     iteration # 12     ecut=    55.00 Ry     beta= 0.70
     Davidson diagonalization with overlap
     ethr =  7.60E-04,  avg # of iterations =  1.0

     total cpu time spent up to now is       26.3 secs

     total energy              =    -923.29319512 Ry
     Harris-Foulkes estimate   =    -922.97847401 Ry
     estimated scf accuracy    <      12.80676997 Ry

     iteration # 13     ecut=    55.00 Ry     beta= 0.70
     Davidson diagonalization with overlap
     ethr =  7.60E-04,  avg # of iterations =  1.0

     total cpu time spent up to now is       26.7 secs

     total energy              =    -923.76414805 Ry
     Harris-Foulkes estimate   =    -923.30365642 Ry
     estimated scf accuracy    <      13.92515653 Ry

     iteration # 14     ecut=    55.00 Ry     beta= 0.70
     Davidson diagonalization with overlap
     ethr =  7.60E-04,  avg # of iterations =  5.5

     total cpu time spent up to now is       27.3 secs

     total energy              =    -922.79783999 Ry
     Harris-Foulkes estimate   =    -923.86079566 Ry
     estimated scf accuracy    <      22.12902007 Ry

     iteration # 15     ecut=    55.00 Ry     beta= 0.70
     Davidson diagonalization with overlap
     ethr =  7.60E-04,  avg # of iterations =  4.0

     total cpu time spent up to now is       27.9 secs

     total energy              =    -923.01998357 Ry
     Harris-Foulkes estimate   =    -922.90809371 Ry
     estimated scf accuracy    <      13.68350119 Ry

     iteration # 16     ecut=    55.00 Ry     beta= 0.70
     Davidson diagonalization with overlap
     ethr =  7.60E-04,  avg # of iterations =  1.0

     total cpu time spent up to now is       28.3 secs

     total energy              =    -919.90924481 Ry
     Harris-Foulkes estimate   =    -923.02760603 Ry
     estimated scf accuracy    <      13.88911779 Ry

     iteration # 17     ecut=    55.00 Ry     beta= 0.70
     Davidson diagonalization with overlap
     ethr =  7.60E-04,  avg # of iterations =  4.5

     total cpu time spent up to now is       29.4 secs

     total energy              =    -921.90123841 Ry
     Harris-Foulkes estimate   =    -921.88239017 Ry
     estimated scf accuracy    <       0.32799221 Ry

     iteration # 18     ecut=    55.00 Ry     beta= 0.70
     Davidson diagonalization with overlap
     ethr =  2.93E-04,  avg # of iterations =  1.0

     total cpu time spent up to now is       29.7 secs

     total energy              =    -921.81105664 Ry
     Harris-Foulkes estimate   =    -921.90909370 Ry
     estimated scf accuracy    <       0.41243177 Ry

     iteration # 19     ecut=    55.00 Ry     beta= 0.70
     Davidson diagonalization with overlap
     ethr =  2.93E-04,  avg # of iterations =  2.5

     total cpu time spent up to now is       30.2 secs

     total energy              =    -921.79924769 Ry
     Harris-Foulkes estimate   =    -921.82759134 Ry
     estimated scf accuracy    <       0.16975247 Ry

     iteration # 20     ecut=    55.00 Ry     beta= 0.70
     Davidson diagonalization with overlap
     ethr =  1.52E-04,  avg # of iterations =  4.0

     total cpu time spent up to now is       30.8 secs

     total energy              =    -921.82320582 Ry
     Harris-Foulkes estimate   =    -921.82474797 Ry
     estimated scf accuracy    <       0.00451032 Ry

     iteration # 21     ecut=    55.00 Ry     beta= 0.70
     Davidson diagonalization with overlap
     ethr =  4.03E-06,  avg # of iterations =  5.0

     total cpu time spent up to now is       31.7 secs

     total energy              =    -921.82633355 Ry
     Harris-Foulkes estimate   =    -921.82667356 Ry
     estimated scf accuracy    <       0.00232914 Ry

     iteration # 22     ecut=    55.00 Ry     beta= 0.70
     Davidson diagonalization with overlap
     ethr =  2.08E-06,  avg # of iterations =  1.0

     total cpu time spent up to now is       32.1 secs

     total energy              =    -921.82610012 Ry
     Harris-Foulkes estimate   =    -921.82637824 Ry
     estimated scf accuracy    <       0.00143207 Ry

     iteration # 23     ecut=    55.00 Ry     beta= 0.70
     Davidson diagonalization with overlap
     ethr =  1.28E-06,  avg # of iterations =  3.8

     total cpu time spent up to now is       32.8 secs

     total energy              =    -921.82628515 Ry
     Harris-Foulkes estimate   =    -921.82632365 Ry
     estimated scf accuracy    <       0.00011434 Ry

     iteration # 24     ecut=    55.00 Ry     beta= 0.70
     Davidson diagonalization with overlap
     ethr =  1.02E-07,  avg # of iterations =  4.8

     total cpu time spent up to now is       33.6 secs

     total energy              =    -921.82631195 Ry
     Harris-Foulkes estimate   =    -921.82631613 Ry
     estimated scf accuracy    <       0.00005386 Ry

     iteration # 25     ecut=    55.00 Ry     beta= 0.70
     Davidson diagonalization with overlap
     ethr =  4.81E-08,  avg # of iterations =  1.0

     total cpu time spent up to now is       34.0 secs

     total energy              =    -921.82630379 Ry
     Harris-Foulkes estimate   =    -921.82631290 Ry
     estimated scf accuracy    <       0.00004585 Ry

     iteration # 26     ecut=    55.00 Ry     beta= 0.70
     Davidson diagonalization with overlap
     ethr =  4.09E-08,  avg # of iterations =  3.2

     total cpu time spent up to now is       34.5 secs

     total energy              =    -921.82630500 Ry
     Harris-Foulkes estimate   =    -921.82630717 Ry
     estimated scf accuracy    <       0.00001253 Ry

     iteration # 27     ecut=    55.00 Ry     beta= 0.70
     Davidson diagonalization with overlap
     ethr =  1.12E-08,  avg # of iterations =  3.8

     total cpu time spent up to now is       35.1 secs

     total energy              =    -921.82630736 Ry
     Harris-Foulkes estimate   =    -921.82630722 Ry
     estimated scf accuracy    <       0.00000237 Ry

     iteration # 28     ecut=    55.00 Ry     beta= 0.70
     Davidson diagonalization with overlap
     ethr =  2.12E-09,  avg # of iterations =  2.5

     total cpu time spent up to now is       35.5 secs

     total energy              =    -921.82630711 Ry
     Harris-Foulkes estimate   =    -921.82630747 Ry
     estimated scf accuracy    <       0.00000274 Ry

     iteration # 29     ecut=    55.00 Ry     beta= 0.70
     Davidson diagonalization with overlap
     ethr =  2.12E-09,  avg # of iterations =  4.0

     total cpu time spent up to now is       36.3 secs

     total energy              =    -921.82630736 Ry
     Harris-Foulkes estimate   =    -921.82630789 Ry
     estimated scf accuracy    <       0.00000648 Ry

     iteration # 30     ecut=    55.00 Ry     beta= 0.70
     Davidson diagonalization with overlap
     ethr =  2.12E-09,  avg # of iterations =  2.8

     total cpu time spent up to now is       36.7 secs

     total energy              =    -921.82630669 Ry
     Harris-Foulkes estimate   =    -921.82630747 Ry
     estimated scf accuracy    <       0.00000520 Ry

     iteration # 31     ecut=    55.00 Ry     beta= 0.70
     Davidson diagonalization with overlap
     ethr =  2.12E-09,  avg # of iterations =  3.8

     total cpu time spent up to now is       37.3 secs

     total energy              =    -921.82630688 Ry
     Harris-Foulkes estimate   =    -921.82630705 Ry
     estimated scf accuracy    <       0.00000079 Ry

     iteration # 32     ecut=    55.00 Ry     beta= 0.70
     Davidson diagonalization with overlap
     ethr =  7.03E-10,  avg # of iterations =  3.5

     total cpu time spent up to now is       37.8 secs

     total energy              =    -921.82630688 Ry
     Harris-Foulkes estimate   =    -921.82630694 Ry
     estimated scf accuracy    <       0.00000028 Ry

     iteration # 33     ecut=    55.00 Ry     beta= 0.70
     Davidson diagonalization with overlap
     ethr =  2.46E-10,  avg # of iterations =  4.0

     total cpu time spent up to now is       38.5 secs

     total energy              =    -921.82630695 Ry
     Harris-Foulkes estimate   =    -921.82630695 Ry
     estimated scf accuracy    <       0.00000002 Ry

     iteration # 34     ecut=    55.00 Ry     beta= 0.70
     Davidson diagonalization with overlap
     ethr =  1.38E-11,  avg # of iterations =  3.5

     total cpu time spent up to now is       39.1 secs

     total energy              =    -921.82630695 Ry
     Harris-Foulkes estimate   =    -921.82630695 Ry
     estimated scf accuracy    <          9.2E-09 Ry

     iteration # 35     ecut=    55.00 Ry     beta= 0.70
     Davidson diagonalization with overlap
     ethr =  8.24E-12,  avg # of iterations =  4.0

     total cpu time spent up to now is       39.8 secs

     total energy              =    -921.82630695 Ry
     Harris-Foulkes estimate   =    -921.82630695 Ry
     estimated scf accuracy    <          4.3E-10 Ry

     iteration # 36     ecut=    55.00 Ry     beta= 0.70
     Davidson diagonalization with overlap
     ethr =  3.88E-13,  avg # of iterations =  5.0

     total cpu time spent up to now is       40.5 secs

     total energy              =    -921.82630695 Ry
     Harris-Foulkes estimate   =    -921.82630695 Ry
     estimated scf accuracy    <          1.2E-09 Ry

     iteration # 37     ecut=    55.00 Ry     beta= 0.70
     Davidson diagonalization with overlap
     ethr =  3.88E-13,  avg # of iterations =  4.0

     total cpu time spent up to now is       41.2 secs

     total energy              =    -921.82630695 Ry
     Harris-Foulkes estimate   =    -921.82630695 Ry
     estimated scf accuracy    <          2.1E-10 Ry

     iteration # 38     ecut=    55.00 Ry     beta= 0.70
     Davidson diagonalization with overlap
     ethr =  1.88E-13,  avg # of iterations =  3.5

     total cpu time spent up to now is       41.8 secs

     End of self-consistent calculation

          k = 0.0000 0.0000 0.0000 (  8487 PWs)   bands (ev):

   -57.9973 -57.9923 -57.9769 -57.9759 -32.3686 -32.3643 -32.3497 -32.3413
   -32.0694 -31.9768 -31.9299 -31.8815 -31.8770 -31.8396 -31.8213 -31.8166
   -12.4424 -12.2820 -11.0783 -11.0320 -10.8880 -10.7060 -10.2775 -10.2757
   -10.0658 -10.0408   0.7059   0.7203   0.7299   0.7549   1.2193   1.6206
     2.1710   2.1929   2.4763   2.6118   2.8534   2.9011   3.2702   3.3204
     3.3697   3.3837   3.4261   3.5259   3.5327   3.6138   3.7525   3.9160
     4.0366   4.4596   4.6285   4.6617   4.6901   4.7937   4.8682   5.0266

          k = 0.0000 0.2764 0.0000 (  8490 PWs)   bands (ev):

   -57.9983 -57.9932 -57.9763 -57.9736 -32.3718 -32.3673 -32.3566 -32.3480
   -32.0685 -31.9759 -31.9298 -31.8811 -31.8765 -31.8396 -31.8214 -31.8166
   -12.3444 -12.1982 -11.0217 -11.0017 -10.8554 -10.6793 -10.2713 -10.2358
    -9.9969  -9.9570   0.6348   0.6445   0.6591   0.6832   0.7875   0.9519
     1.5744   1.5810   1.6331   1.7558   2.4694   2.4905   2.5421   3.1472
     3.1859   3.3373   3.5663   3.8974   3.9293   4.0886   4.1413   4.3407
     4.6297   4.7167   4.7261   4.7533   4.7792   5.0515   5.2057   5.3194

          k = 0.3483 0.0000 0.0000 (  8476 PWs)   bands (ev):

   -57.9889 -57.9842 -57.9784 -57.9740 -32.3578 -32.3530 -32.3469 -32.3400
   -32.0636 -32.0174 -31.9966 -31.9803 -31.8970 -31.8893 -31.8591 -31.8383
   -11.7130 -11.5233 -10.9484 -10.7688 -10.7020 -10.6227 -10.1864 -10.1824
   -10.1275 -10.0797   0.1284   0.2694   0.9431   1.1190   1.3375   1.6064
     1.6724   1.9438   2.0634   2.2723   2.3343   2.3510   2.8565   3.0196
     3.0720   3.2615   3.3362   3.3488   3.7003   3.7193   3.7340   3.8819
     3.9857   4.1451   4.4664   4.6264   4.7248   4.8380   5.0947   5.2737

          k = 0.3483 0.2764 0.0000 (  8498 PWs)   bands (ev):

   -57.9888 -57.9851 -57.9790 -57.9740 -32.3617 -32.3569 -32.3527 -32.3456
   -32.0628 -32.0168 -31.9957 -31.9796 -31.8971 -31.8893 -31.8592 -31.8384
   -11.6276 -11.4585 -10.9117 -10.7647 -10.6599 -10.6021 -10.1536 -10.1191
   -10.0179  -9.9862   0.1280   0.2656   0.8151   0.9321   1.0061   1.0619
     1.4654   1.4709   1.6263   1.7308   1.8690   2.2333   2.5387   2.6878
     2.7894   2.7930   2.9918   3.0356   3.2100   3.6284   3.9231   4.1973
     4.5603   4.6285   4.8979   5.0799   5.1664   5.3218   5.3700   5.4690

     highest occupied level (ev):     5.4690

!    total energy              =    -921.82630695 Ry
     Harris-Foulkes estimate   =    -921.82630695 Ry
     estimated scf accuracy    <          4.3E-12 Ry

     The total energy is the sum of the following terms:

     one-electron contribution =    -557.74039402 Ry
     hartree contribution      =     325.32839848 Ry
     xc contribution           =    -175.47042782 Ry
     ewald contribution        =    -513.79448283 Ry
     Dispersion Correction     =      -0.14940076 Ry

     convergence has been achieved in  38 iterations

     Forces acting on atoms (cartesian axes, Ry/au):

     atom    1 type  1   force =    -0.00000000    0.13595882    0.02957361
     atom    2 type  1   force =     0.00000000   -0.13595882   -0.02957361
     atom    3 type  1   force =     0.00000000   -0.13595882    0.02957361
     atom    4 type  1   force =    -0.00000000    0.13595882   -0.02957361
     atom    5 type  2   force =     0.00000000    0.02300312   -0.01865627
     atom    6 type  2   force =     0.00000000   -0.02300312    0.01865627
     atom    7 type  2   force =     0.00000000   -0.02300312   -0.01865627
     atom    8 type  2   force =    -0.00000000    0.02300312    0.01865627
     atom    9 type  2   force =     0.00000000   -0.21118152    0.00522670
     atom   10 type  2   force =    -0.00000000    0.21118152   -0.00522670
     atom   11 type  2   force =     0.00000000    0.21118152    0.00522670
     atom   12 type  2   force =    -0.00000000   -0.05238158    0.00000000
     atom   13 type  2   force =     0.00000000    0.05238158    0.00000000
     atom   14 type  2   force =     0.00000000   -0.21118152   -0.00522670

     Total force =     0.514717     Total SCF correction =     0.000009


     Computing stress (Cartesian axis) and pressure

          total   stress  (Ry/bohr**3)                   (kbar)     P=  195.27
   0.00102193   0.00000000   0.00000000        150.33      0.00      0.00
   0.00000000   0.00182824   0.00000000          0.00    268.94      0.00
   0.00000000   0.00000000   0.00113211          0.00      0.00    166.54


     number of scf cycles    =   2
     number of bfgs steps    =   1

     enthalpy old            =    -921.7797988917 Ry
     enthalpy new            =    -921.8263069486 Ry

     CASE: enthalpy_new < enthalpy_old

     new trust radius        =       0.1081723702 bohr
     new conv_thr            =            1.0E-10 Ry

     new unit-cell volume =   1096.37726 a.u.^3 (   162.46635 Ang^3 )
     density =      3.71792 g/cm^3

CELL_PARAMETERS (alat=  6.68268247)
   0.959315383   0.000000000   0.000000000
   0.000000000   1.221734924   0.000000000
   0.000000000   0.000000000   3.134506289

ATOMIC_POSITIONS (crystal)
V       -0.000000000   0.389942382   0.649048339
V        0.500000007   0.610057632   0.850951681
V        0.500000007   0.610057632   0.149048333
V        0.000000000   0.389942382   0.350951674
O        0.500000007   0.493949109   0.681044849
O        0.000000000   0.506050905   0.818955171
O        0.000000000   0.506050905   0.181044843
O        0.500000007   0.493949109   0.318955164
O        0.000000000   0.016821918   0.354233593
O        0.500000007   0.983178097   0.145766415
O        0.500000007   0.983178097   0.854233599
O        0.500000007   0.505686505   0.000000000
O        0.000000000   0.494313509   0.500000007
O        0.000000000   0.016821918   0.645766422



     Writing output data file v2o5.save/
     NEW-OLD atomic charge density approx. for the potential

     Check: negative core charge=   -0.000046
     extrapolated charge  114.07661, renormalised to  112.00000

     total cpu time spent up to now is       43.2 secs

     Self-consistent Calculation

     iteration #  1     ecut=    55.00 Ry     beta= 0.70
     Davidson diagonalization with overlap
     ethr =  1.00E-06,  avg # of iterations = 12.2

     total cpu time spent up to now is       45.4 secs

     total energy              =    -920.80284050 Ry
     Harris-Foulkes estimate   =    -913.57748421 Ry
     estimated scf accuracy    <       1.09225893 Ry

     iteration #  2     ecut=    55.00 Ry     beta= 0.70
     Davidson diagonalization with overlap
     ethr =  9.75E-04,  avg # of iterations = 10.8

     total cpu time spent up to now is       46.8 secs

     total energy              =    -917.94059323 Ry
     Harris-Foulkes estimate   =    -926.34691475 Ry
     estimated scf accuracy    <      57.43510001 Ry

     iteration #  3     ecut=    55.00 Ry     beta= 0.70
     Davidson diagonalization with overlap
     ethr =  9.75E-04,  avg # of iterations =  6.0

     total cpu time spent up to now is       47.9 secs

     total energy              =    -921.86470829 Ry
     Harris-Foulkes estimate   =    -921.92151684 Ry
     estimated scf accuracy    <       0.16188811 Ry

     iteration #  4     ecut=    55.00 Ry     beta= 0.70
     Davidson diagonalization with overlap
     ethr =  1.45E-04,  avg # of iterations =  3.0

     total cpu time spent up to now is       48.4 secs

     total energy              =    -921.87450527 Ry
     Harris-Foulkes estimate   =    -921.88142924 Ry
     estimated scf accuracy    <       0.05137583 Ry

     iteration #  5     ecut=    55.00 Ry     beta= 0.70
     Davidson diagonalization with overlap
     ethr =  4.59E-05,  avg # of iterations =  2.0

     total cpu time spent up to now is       48.9 secs

     total energy              =    -921.86952343 Ry
     Harris-Foulkes estimate   =    -921.87705460 Ry
     estimated scf accuracy    <       0.03659363 Ry

     iteration #  6     ecut=    55.00 Ry     beta= 0.70
     Davidson diagonalization with overlap
     ethr =  3.27E-05,  avg # of iterations =  1.0

     total cpu time spent up to now is       49.2 secs

     total energy              =    -921.86694639 Ry
     Harris-Foulkes estimate   =    -921.87073560 Ry
     estimated scf accuracy    <       0.02016751 Ry

     iteration #  7     ecut=    55.00 Ry     beta= 0.70
     Davidson diagonalization with overlap
     ethr =  1.80E-05,  avg # of iterations =  4.0

     total cpu time spent up to now is       49.9 secs

     total energy              =    -921.87114405 Ry
     Harris-Foulkes estimate   =    -921.87136214 Ry
     estimated scf accuracy    <       0.00157688 Ry

     iteration #  8     ecut=    55.00 Ry     beta= 0.70
     Davidson diagonalization with overlap
     ethr =  1.41E-06,  avg # of iterations =  3.0

     total cpu time spent up to now is       50.4 secs

     total energy              =    -921.87098366 Ry
     Harris-Foulkes estimate   =    -921.87120058 Ry
     estimated scf accuracy    <       0.00105080 Ry

     iteration #  9     ecut=    55.00 Ry     beta= 0.70
     Davidson diagonalization with overlap
     ethr =  9.38E-07,  avg # of iterations =  4.0

     total cpu time spent up to now is       51.0 secs

     total energy              =    -921.87113100 Ry
     Harris-Foulkes estimate   =    -921.87116942 Ry
     estimated scf accuracy    <       0.00008172 Ry

     iteration # 10     ecut=    55.00 Ry     beta= 0.70
     Davidson diagonalization with overlap
     ethr =  7.30E-08,  avg # of iterations =  5.0

     total cpu time spent up to now is       52.1 secs

     total energy              =    -921.87108546 Ry
     Harris-Foulkes estimate   =    -921.87120037 Ry
     estimated scf accuracy    <       0.00026651 Ry

     iteration # 11     ecut=    55.00 Ry     beta= 0.70
     Davidson diagonalization with overlap
     ethr =  7.30E-08,  avg # of iterations =  5.0

     total cpu time spent up to now is       53.1 secs

     total energy              =    -921.87116223 Ry
     Harris-Foulkes estimate   =    -921.87118777 Ry
     estimated scf accuracy    <       0.00027642 Ry

     iteration # 12     ecut=    55.00 Ry     beta= 0.70
     Davidson diagonalization with overlap
     ethr =  7.30E-08,  avg # of iterations =  1.0

     total cpu time spent up to now is       53.5 secs

     total energy              =    -921.87115007 Ry
     Harris-Foulkes estimate   =    -921.87116407 Ry
     estimated scf accuracy    <       0.00018505 Ry

     iteration # 13     ecut=    55.00 Ry     beta= 0.70
     Davidson diagonalization with overlap
     ethr =  7.30E-08,  avg # of iterations =  3.8

     total cpu time spent up to now is       54.0 secs

     total energy              =    -921.87114927 Ry
     Harris-Foulkes estimate   =    -921.87115332 Ry
     estimated scf accuracy    <       0.00011858 Ry

     iteration # 14     ecut=    55.00 Ry     beta= 0.70
     Davidson diagonalization with overlap
     ethr =  7.30E-08,  avg # of iterations =  1.0

     total cpu time spent up to now is       54.4 secs

     total energy              =    -921.87113791 Ry
     Harris-Foulkes estimate   =    -921.87115109 Ry
     estimated scf accuracy    <       0.00009475 Ry

     iteration # 15     ecut=    55.00 Ry     beta= 0.70
     Davidson diagonalization with overlap
     ethr =  7.30E-08,  avg # of iterations =  4.0

     total cpu time spent up to now is       55.0 secs

     total energy              =    -921.87115571 Ry
     Harris-Foulkes estimate   =    -921.87115497 Ry
     estimated scf accuracy    <       0.00000297 Ry

     iteration # 16     ecut=    55.00 Ry     beta= 0.70
     Davidson diagonalization with overlap
     ethr =  2.66E-09,  avg # of iterations =  5.0

     total cpu time spent up to now is       56.0 secs

     total energy              =    -921.87115626 Ry
     Harris-Foulkes estimate   =    -921.87115744 Ry
     estimated scf accuracy    <       0.00001925 Ry

     iteration # 17     ecut=    55.00 Ry     beta= 0.70
     Davidson diagonalization with overlap
     ethr =  2.66E-09,  avg # of iterations =  1.0

     total cpu time spent up to now is       56.3 secs

     total energy              =    -921.87115388 Ry
     Harris-Foulkes estimate   =    -921.87115631 Ry
     estimated scf accuracy    <       0.00001543 Ry

     iteration # 18     ecut=    55.00 Ry     beta= 0.70
     Davidson diagonalization with overlap
     ethr =  2.66E-09,  avg # of iterations =  4.5

     total cpu time spent up to now is       57.1 secs

     total energy              =    -921.87115520 Ry
     Harris-Foulkes estimate   =    -921.87115517 Ry
     estimated scf accuracy    <       0.00000038 Ry

     iteration # 19     ecut=    55.00 Ry     beta= 0.70
     Davidson diagonalization with overlap
     ethr =  3.38E-10,  avg # of iterations =  1.0

     total cpu time spent up to now is       57.5 secs

     total energy              =    -921.87115525 Ry
     Harris-Foulkes estimate   =    -921.87115521 Ry
     estimated scf accuracy    <       0.00000046 Ry

     iteration # 20     ecut=    55.00 Ry     beta= 0.70
     Davidson diagonalization with overlap
     ethr =  3.38E-10,  avg # of iterations =  3.2

     total cpu time spent up to now is       58.0 secs

     total energy              =    -921.87115521 Ry
     Harris-Foulkes estimate   =    -921.87115527 Ry
     estimated scf accuracy    <       0.00000078 Ry

     iteration # 21     ecut=    55.00 Ry     beta= 0.70
     Davidson diagonalization with overlap
     ethr =  3.38E-10,  avg # of iterations =  1.0

     total cpu time spent up to now is       58.4 secs

     total energy              =    -921.87115514 Ry
     Harris-Foulkes estimate   =    -921.87115522 Ry
     estimated scf accuracy    <       0.00000070 Ry

     iteration # 22     ecut=    55.00 Ry     beta= 0.70
     Davidson diagonalization with overlap
     ethr =  3.38E-10,  avg # of iterations =  1.0

     total cpu time spent up to now is       58.7 secs

     total energy              =    -921.87115515 Ry
     Harris-Foulkes estimate   =    -921.87115514 Ry
     estimated scf accuracy    <       0.00000047 Ry

     iteration # 23     ecut=    55.00 Ry     beta= 0.70
     Davidson diagonalization with overlap
     ethr =  3.38E-10,  avg # of iterations =  1.0

     total cpu time spent up to now is       59.1 secs

     total energy              =    -921.87115504 Ry
     Harris-Foulkes estimate   =    -921.87115515 Ry
     estimated scf accuracy    <       0.00000046 Ry

     iteration # 24     ecut=    55.00 Ry     beta= 0.70
     Davidson diagonalization with overlap
     ethr =  3.38E-10,  avg # of iterations =  4.0

     total cpu time spent up to now is       59.8 secs

     total energy              =    -921.87115512 Ry
     Harris-Foulkes estimate   =    -921.87115513 Ry
     estimated scf accuracy    <       0.00000003 Ry

     iteration # 25     ecut=    55.00 Ry     beta= 0.70
     Davidson diagonalization with overlap
     ethr =  3.06E-11,  avg # of iterations =  4.8

     total cpu time spent up to now is       60.6 secs

     total energy              =    -921.87115513 Ry
     Harris-Foulkes estimate   =    -921.87115513 Ry
     estimated scf accuracy    <       0.00000001 Ry

     iteration # 26     ecut=    55.00 Ry     beta= 0.70
     Davidson diagonalization with overlap
     ethr =  1.09E-11,  avg # of iterations =  2.0

     total cpu time spent up to now is       61.0 secs

     total energy              =    -921.87115513 Ry
     Harris-Foulkes estimate   =    -921.87115513 Ry
     estimated scf accuracy    <       0.00000001 Ry

     iteration # 27     ecut=    55.00 Ry     beta= 0.70
     Davidson diagonalization with overlap
     ethr =  1.09E-11,  avg # of iterations =  2.0

     total cpu time spent up to now is       61.4 secs

     total energy              =    -921.87115512 Ry
     Harris-Foulkes estimate   =    -921.87115513 Ry
     estimated scf accuracy    <       0.00000002 Ry

     iteration # 28     ecut=    55.00 Ry     beta= 0.70
     Davidson diagonalization with overlap
     ethr =  1.09E-11,  avg # of iterations =  1.0

     total cpu time spent up to now is       61.8 secs

     total energy              =    -921.87115512 Ry
     Harris-Foulkes estimate   =    -921.87115512 Ry
     estimated scf accuracy    <       0.00000001 Ry

     iteration # 29     ecut=    55.00 Ry     beta= 0.70
     Davidson diagonalization with overlap
     ethr =  1.09E-11,  avg # of iterations =  4.5

     total cpu time spent up to now is       62.6 secs

     total energy              =    -921.87115512 Ry
     Harris-Foulkes estimate   =    -921.87115513 Ry
     estimated scf accuracy    <       0.00000001 Ry

     iteration # 30     ecut=    55.00 Ry     beta= 0.70
     Davidson diagonalization with overlap
     ethr =  9.04E-12,  avg # of iterations =  1.0

     total cpu time spent up to now is       63.0 secs

     total energy              =    -921.87115512 Ry
     Harris-Foulkes estimate   =    -921.87115512 Ry
     estimated scf accuracy    <          7.8E-09 Ry

     iteration # 31     ecut=    55.00 Ry     beta= 0.70
     Davidson diagonalization with overlap
     ethr =  6.94E-12,  avg # of iterations =  4.0

     total cpu time spent up to now is       63.6 secs

     End of self-consistent calculation

          k = 0.0000 0.0000 0.0000 (  8487 PWs)   bands (ev):

   -58.5146 -58.5106 -58.4912 -58.4909 -32.6474 -32.5744 -32.5270 -32.4843
   -32.4803 -32.4736 -32.4667 -32.4529 -32.4237 -32.4182 -32.4140 -32.3886
   -12.9269 -12.7814 -11.6306 -11.6145 -11.3015 -11.1145 -10.3061 -10.2858
   -10.0449 -10.0373   0.2169   0.2659   0.2897   0.2931   0.8490   1.4220
     1.7744   2.0939   2.3790   2.5901   2.8008   2.8540   3.1544   3.1644
     3.3544   3.4553   3.5957   3.6902   3.7822   3.8592   4.0776   4.0856
     4.0870   4.0884   4.1836   4.4408   4.7805   4.7863   4.8296   4.9946

          k = 0.0000 0.2728 0.0000 (  8490 PWs)   bands (ev):

   -58.5159 -58.5109 -58.4906 -58.4889 -32.6472 -32.5750 -32.5294 -32.4839
   -32.4799 -32.4783 -32.4690 -32.4545 -32.4267 -32.4182 -32.4140 -32.3894
   -12.8600 -12.7246 -11.6076 -11.5964 -11.2658 -11.0978 -10.2808 -10.2311
    -9.9794  -9.9266   0.2004   0.2266   0.2518   0.2595   0.6191   0.9360
     1.3428   1.4906   1.6438   1.8215   2.5449   2.5451   2.6207   3.1167
     3.1932   3.2929   3.3282   3.5068   3.8168   4.1898   4.2331   4.3561
     4.4095   4.4343   4.6302   4.7201   4.7468   4.9295   5.0382   5.3454

          k = 0.3475 0.0000 0.0000 (  8476 PWs)   bands (ev):

   -58.5058 -58.5012 -58.4935 -58.4897 -32.6473 -32.6059 -32.6005 -32.5804
   -32.5009 -32.4921 -32.4625 -32.4554 -32.4436 -32.4358 -32.4271 -32.3991
   -12.1812 -12.0139 -11.4265 -11.3236 -11.1493 -11.0415 -10.2003 -10.1833
   -10.0822 -10.0813  -0.3926  -0.2734   0.4934   0.6493   0.9746   1.1749
     1.2365   1.5980   1.8697   2.0870   2.2815   2.5360   2.8549   3.0378
     3.1439   3.2657   3.4325   3.5001   3.7768   3.7771   3.9024   3.9394
     4.0731   4.1041   4.3637   4.6222   4.7906   4.7981   4.8551   4.9064

          k = 0.3475 0.2728 0.0000 (  8498 PWs)   bands (ev):

   -58.5055 -58.5026 -58.4943 -58.4898 -32.6470 -32.6055 -32.6006 -32.5801
   -32.5034 -32.4934 -32.4665 -32.4572 -32.4454 -32.4367 -32.4295 -32.3997
   -12.1268 -11.9734 -11.4148 -11.3197 -11.1130 -11.0271 -10.1488 -10.1011
    -9.9986  -9.9519  -0.3966  -0.2781   0.4493   0.6001   0.8207   1.0113
     1.0719   1.1410   1.3940   1.7620   1.9058   1.9581   2.3185   2.6568
     2.6838   2.7689   2.9819   3.0550   3.3979   3.7421   3.8915   4.3359
     4.3925   4.6032   4.9211   4.9601   5.0312   5.0826   5.2191   5.3298

     highest occupied level (ev):     5.3454

!    total energy              =    -921.87115512 Ry
     Harris-Foulkes estimate   =    -921.87115512 Ry
     estimated scf accuracy    <          6.2E-11 Ry

     The total energy is the sum of the following terms:

     one-electron contribution =    -551.46680383 Ry
     hartree contribution      =     320.73116343 Ry
     xc contribution           =    -174.79785679 Ry
     ewald contribution        =    -516.19236759 Ry
     Dispersion Correction     =      -0.14529034 Ry

     convergence has been achieved in  31 iterations

     Forces acting on atoms (cartesian axes, Ry/au):

     atom    1 type  1   force =    -0.00000000   -0.10983479   -0.00537886
     atom    2 type  1   force =     0.00000000    0.10983479    0.00537886
     atom    3 type  1   force =     0.00000000    0.10983479   -0.00537886
     atom    4 type  1   force =    -0.00000000   -0.10983479    0.00537886
     atom    5 type  2   force =    -0.00000000    0.02121429   -0.01395278
     atom    6 type  2   force =     0.00000000   -0.02121429    0.01395278
     atom    7 type  2   force =     0.00000000   -0.02121429   -0.01395278
     atom    8 type  2   force =    -0.00000000    0.02121429    0.01395278
     atom    9 type  2   force =     0.00000000    0.04106317    0.00041485
     atom   10 type  2   force =     0.00000000   -0.04106317   -0.00041485
     atom   11 type  2   force =     0.00000000   -0.04106317    0.00041485
     atom   12 type  2   force =     0.00000000   -0.03656711    0.00000000
     atom   13 type  2   force =     0.00000000    0.03656711   -0.00000000
     atom   14 type  2   force =     0.00000000    0.04106317   -0.00041485

     Total force =     0.245701     Total SCF correction =     0.000021


     Computing stress (Cartesian axis) and pressure

          total   stress  (Ry/bohr**3)                   (kbar)     P=   20.15
   0.00087496   0.00000000   0.00000000        128.71      0.00      0.00
   0.00000000  -0.00123595   0.00000000          0.00   -181.81      0.00
   0.00000000   0.00000000   0.00077183          0.00      0.00    113.54


     number of scf cycles    =   3
     number of bfgs steps    =   2

     enthalpy old            =    -921.8263069486 Ry
     enthalpy new            =    -921.8711551237 Ry

     CASE: enthalpy_new < enthalpy_old

     new trust radius        =       0.1545233345 bohr
     new conv_thr            =            1.0E-10 Ry

     new unit-cell volume =   1135.09425 a.u.^3 (   168.20361 Ang^3 )
     density =      3.59111 g/cm^3

CELL_PARAMETERS (alat=  6.68268247)
   0.981699784   0.000000000   0.000000000
   0.000000000   1.209203657   0.000000000
   0.000000000   0.000000000   3.204064856

ATOMIC_POSITIONS (crystal)
V       -0.000000000   0.383834025   0.649129777
V        0.500000007   0.616165988   0.850870242
V        0.500000007   0.616165988   0.149129772
V       -0.000000000   0.383834025   0.350870235
O        0.500000007   0.496293791   0.680410142
O        0.000000000   0.503706222   0.819589877
O        0.000000000   0.503706222   0.180410136
O        0.500000007   0.496293791   0.319589871
O        0.000000000   0.015306969   0.354297420
O        0.500000007   0.984693044   0.145702588
O        0.500000007   0.984693044   0.854297425
O        0.500000007   0.501343225   0.000000000
O        0.000000000   0.498656789   0.500000007
O        0.000000000   0.015306969   0.645702595



     Writing output data file v2o5.save/
     NEW-OLD atomic charge density approx. for the potential

     Check: negative core charge=   -0.000056
     extrapolated charge  115.82007, renormalised to  112.00000

     total cpu time spent up to now is       65.0 secs

     Self-consistent Calculation

     iteration #  1     ecut=    55.00 Ry     beta= 0.70
     Davidson diagonalization with overlap
     ethr =  1.00E-06,  avg # of iterations = 12.0

     total cpu time spent up to now is       67.3 secs

     total energy              =    -919.80424531 Ry
     Harris-Foulkes estimate   =    -906.70374031 Ry
     estimated scf accuracy    <       1.87895748 Ry

     iteration #  2     ecut=    55.00 Ry     beta= 0.70
     Davidson diagonalization with overlap
     ethr =  1.68E-03,  avg # of iterations =  9.5

     total cpu time spent up to now is       68.7 secs

     total energy              =    -915.94661221 Ry
     Harris-Foulkes estimate   =    -930.20151945 Ry
     estimated scf accuracy    <      96.24961798 Ry

     iteration #  3     ecut=    55.00 Ry     beta= 0.70
     Davidson diagonalization with overlap
     ethr =  1.68E-03,  avg # of iterations =  5.8

     total cpu time spent up to now is       69.8 secs

     total energy              =    -921.89555541 Ry
     Harris-Foulkes estimate   =    -922.08259933 Ry
     estimated scf accuracy    <       0.74785543 Ry

     iteration #  4     ecut=    55.00 Ry     beta= 0.70
     Davidson diagonalization with overlap
     ethr =  6.68E-04,  avg # of iterations =  4.0

     total cpu time spent up to now is       70.3 secs

     total energy              =    -921.91287725 Ry
     Harris-Foulkes estimate   =    -921.94818048 Ry
     estimated scf accuracy    <       0.38308133 Ry

     iteration #  5     ecut=    55.00 Ry     beta= 0.70
     Davidson diagonalization with overlap
     ethr =  3.42E-04,  avg # of iterations =  1.2

     total cpu time spent up to now is       70.6 secs

     total energy              =    -921.88661997 Ry
     Harris-Foulkes estimate   =    -921.92156120 Ry
     estimated scf accuracy    <       0.28390193 Ry

     iteration #  6     ecut=    55.00 Ry     beta= 0.70
     Davidson diagonalization with overlap
     ethr =  2.53E-04,  avg # of iterations =  1.0

     total cpu time spent up to now is       71.0 secs

     total energy              =    -921.86988035 Ry
     Harris-Foulkes estimate   =    -921.89379290 Ry
     estimated scf accuracy    <       0.17115982 Ry

     iteration #  7     ecut=    55.00 Ry     beta= 0.70
     Davidson diagonalization with overlap
     ethr =  1.53E-04,  avg # of iterations =  4.2

     total cpu time spent up to now is       71.6 secs

     total energy              =    -921.89978873 Ry
     Harris-Foulkes estimate   =    -921.90080557 Ry
     estimated scf accuracy    <       0.01257701 Ry

     iteration #  8     ecut=    55.00 Ry     beta= 0.70
     Davidson diagonalization with overlap
     ethr =  1.12E-05,  avg # of iterations =  4.5

     total cpu time spent up to now is       72.3 secs

     total energy              =    -921.90509610 Ry
     Harris-Foulkes estimate   =    -921.90454310 Ry
     estimated scf accuracy    <       0.01276390 Ry

     iteration #  9     ecut=    55.00 Ry     beta= 0.70
     Davidson diagonalization with overlap
     ethr =  1.12E-05,  avg # of iterations =  1.0

     total cpu time spent up to now is       72.7 secs

     total energy              =    -921.90081414 Ry
     Harris-Foulkes estimate   =    -921.90520449 Ry
     estimated scf accuracy    <       0.01421946 Ry

     iteration # 10     ecut=    55.00 Ry     beta= 0.70
     Davidson diagonalization with overlap
     ethr =  1.12E-05,  avg # of iterations =  4.0

     total cpu time spent up to now is       73.4 secs

     total energy              =    -921.90203742 Ry
     Harris-Foulkes estimate   =    -921.90330009 Ry
     estimated scf accuracy    <       0.00689305 Ry

     iteration # 11     ecut=    55.00 Ry     beta= 0.70
     Davidson diagonalization with overlap
     ethr =  6.15E-06,  avg # of iterations =  3.8

     total cpu time spent up to now is       74.0 secs

     total energy              =    -921.90306445 Ry
     Harris-Foulkes estimate   =    -921.90303108 Ry
     estimated scf accuracy    <       0.00866514 Ry

     iteration # 12     ecut=    55.00 Ry     beta= 0.70
     Davidson diagonalization with overlap
     ethr =  6.15E-06,  avg # of iterations =  1.0

     total cpu time spent up to now is       74.4 secs

     total energy              =    -921.90187415 Ry
     Harris-Foulkes estimate   =    -921.90312937 Ry
     estimated scf accuracy    <       0.00936167 Ry

     iteration # 13     ecut=    55.00 Ry     beta= 0.70
     Davidson diagonalization with overlap
     ethr =  6.15E-06,  avg # of iterations =  1.0

     total cpu time spent up to now is       74.7 secs

     total energy              =    -921.90155806 Ry
     Harris-Foulkes estimate   =    -921.90193673 Ry
     estimated scf accuracy    <       0.00669477 Ry

     iteration # 14     ecut=    55.00 Ry     beta= 0.70
     Davidson diagonalization with overlap
     ethr =  5.98E-06,  avg # of iterations =  1.0

     total cpu time spent up to now is       75.1 secs

     total energy              =    -921.90104818 Ry
     Harris-Foulkes estimate   =    -921.90161060 Ry
     estimated scf accuracy    <       0.00508780 Ry

     iteration # 15     ecut=    55.00 Ry     beta= 0.70
     Davidson diagonalization with overlap
     ethr =  4.54E-06,  avg # of iterations =  1.0

     total cpu time spent up to now is       75.5 secs

     total energy              =    -921.90073816 Ry
     Harris-Foulkes estimate   =    -921.90115672 Ry
     estimated scf accuracy    <       0.00316578 Ry

     iteration # 16     ecut=    55.00 Ry     beta= 0.70
     Davidson diagonalization with overlap
     ethr =  2.83E-06,  avg # of iterations =  4.2

     total cpu time spent up to now is       76.2 secs

     total energy              =    -921.90146294 Ry
     Harris-Foulkes estimate   =    -921.90141503 Ry
     estimated scf accuracy    <       0.00020349 Ry

     iteration # 17     ecut=    55.00 Ry     beta= 0.70
     Davidson diagonalization with overlap
     ethr =  1.82E-07,  avg # of iterations =  5.0

     total cpu time spent up to now is       77.2 secs

     total energy              =    -921.90141108 Ry
     Harris-Foulkes estimate   =    -921.90168370 Ry
     estimated scf accuracy    <       0.00190987 Ry

     iteration # 18     ecut=    55.00 Ry     beta= 0.70
     Davidson diagonalization with overlap
     ethr =  1.82E-07,  avg # of iterations =  4.0

     total cpu time spent up to now is       77.9 secs

     total energy              =    -921.90142542 Ry
     Harris-Foulkes estimate   =    -921.90148119 Ry
     estimated scf accuracy    <       0.00035674 Ry

     iteration # 19     ecut=    55.00 Ry     beta= 0.70
     Davidson diagonalization with overlap
     ethr =  1.82E-07,  avg # of iterations =  1.5

     total cpu time spent up to now is       78.3 secs

     total energy              =    -921.90141355 Ry
     Harris-Foulkes estimate   =    -921.90143228 Ry
     estimated scf accuracy    <       0.00017802 Ry

     iteration # 20     ecut=    55.00 Ry     beta= 0.70
     Davidson diagonalization with overlap
     ethr =  1.59E-07,  avg # of iterations =  3.2

     total cpu time spent up to now is       78.8 secs

     total energy              =    -921.90141735 Ry
     Harris-Foulkes estimate   =    -921.90142302 Ry
     estimated scf accuracy    <       0.00008083 Ry

     iteration # 21     ecut=    55.00 Ry     beta= 0.70
     Davidson diagonalization with overlap
     ethr =  7.22E-08,  avg # of iterations =  4.0

     total cpu time spent up to now is       79.5 secs

     total energy              =    -921.90143634 Ry
     Harris-Foulkes estimate   =    -921.90143772 Ry
     estimated scf accuracy    <       0.00000325 Ry

     iteration # 22     ecut=    55.00 Ry     beta= 0.70
     Davidson diagonalization with overlap
     ethr =  2.91E-09,  avg # of iterations =  4.5

     total cpu time spent up to now is       80.4 secs

     total energy              =    -921.90143712 Ry
     Harris-Foulkes estimate   =    -921.90143780 Ry
     estimated scf accuracy    <       0.00000316 Ry

     iteration # 23     ecut=    55.00 Ry     beta= 0.70
     Davidson diagonalization with overlap
     ethr =  2.82E-09,  avg # of iterations =  3.2

     total cpu time spent up to now is       80.9 secs

     total energy              =    -921.90143717 Ry
     Harris-Foulkes estimate   =    -921.90143725 Ry
     estimated scf accuracy    <       0.00000093 Ry

     iteration # 24     ecut=    55.00 Ry     beta= 0.70
     Davidson diagonalization with overlap
     ethr =  8.35E-10,  avg # of iterations =  4.0

     total cpu time spent up to now is       81.6 secs

     total energy              =    -921.90143738 Ry
     Harris-Foulkes estimate   =    -921.90143739 Ry
     estimated scf accuracy    <       0.00000003 Ry

     iteration # 25     ecut=    55.00 Ry     beta= 0.70
     Davidson diagonalization with overlap
     ethr =  2.72E-11,  avg # of iterations =  5.0

     total cpu time spent up to now is       82.5 secs

     total energy              =    -921.90143743 Ry
     Harris-Foulkes estimate   =    -921.90143740 Ry
     estimated scf accuracy    <       0.00000011 Ry

     iteration # 26     ecut=    55.00 Ry     beta= 0.70
     Davidson diagonalization with overlap
     ethr =  2.72E-11,  avg # of iterations =  4.0

     total cpu time spent up to now is       83.3 secs

     total energy              =    -921.90143740 Ry
     Harris-Foulkes estimate   =    -921.90143744 Ry
     estimated scf accuracy    <       0.00000036 Ry

     iteration # 27     ecut=    55.00 Ry     beta= 0.70
     Davidson diagonalization with overlap
     ethr =  2.72E-11,  avg # of iterations =  4.0

     total cpu time spent up to now is       84.0 secs

     total energy              =    -921.90143740 Ry
     Harris-Foulkes estimate   =    -921.90143741 Ry
     estimated scf accuracy    <       0.00000016 Ry

     iteration # 28     ecut=    55.00 Ry     beta= 0.70
     Davidson diagonalization with overlap
     ethr =  2.72E-11,  avg # of iterations =  2.0

     total cpu time spent up to now is       84.4 secs

     total energy              =    -921.90143738 Ry
     Harris-Foulkes estimate   =    -921.90143740 Ry
     estimated scf accuracy    <       0.00000012 Ry

     iteration # 29     ecut=    55.00 Ry     beta= 0.70
     Davidson diagonalization with overlap
     ethr =  2.72E-11,  avg # of iterations =  4.0

     total cpu time spent up to now is       85.1 secs

     total energy              =    -921.90143739 Ry
     Harris-Foulkes estimate   =    -921.90143739 Ry
     estimated scf accuracy    <       0.00000002 Ry

     iteration # 30     ecut=    55.00 Ry     beta= 0.70
     Davidson diagonalization with overlap
     ethr =  1.42E-11,  avg # of iterations =  4.0

     total cpu time spent up to now is       85.8 secs

     total energy              =    -921.90143739 Ry
     Harris-Foulkes estimate   =    -921.90143739 Ry
     estimated scf accuracy    <          1.5E-09 Ry

     iteration # 31     ecut=    55.00 Ry     beta= 0.70
     Davidson diagonalization with overlap
     ethr =  1.37E-12,  avg # of iterations =  4.0

     total cpu time spent up to now is       86.4 secs

     total energy              =    -921.90143739 Ry
     Harris-Foulkes estimate   =    -921.90143739 Ry
     estimated scf accuracy    <          4.0E-10 Ry

     iteration # 32     ecut=    55.00 Ry     beta= 0.70
     Davidson diagonalization with overlap
     ethr =  3.58E-13,  avg # of iterations =  5.0

     total cpu time spent up to now is       87.2 secs

     total energy              =    -921.90143739 Ry
     Harris-Foulkes estimate   =    -921.90143739 Ry
     estimated scf accuracy    <          1.7E-10 Ry

     iteration # 33     ecut=    55.00 Ry     beta= 0.70
     Davidson diagonalization with overlap
     ethr =  1.51E-13,  avg # of iterations =  1.0

     total cpu time spent up to now is       87.6 secs

     total energy              =    -921.90143739 Ry
     Harris-Foulkes estimate   =    -921.90143739 Ry
     estimated scf accuracy    <          1.4E-10 Ry

     iteration # 34     ecut=    55.00 Ry     beta= 0.70
     Davidson diagonalization with overlap
     ethr =  1.24E-13,  avg # of iterations =  2.0

     total cpu time spent up to now is       88.0 secs

     End of self-consistent calculation

          k = 0.0000 0.0000 0.0000 (  8487 PWs)   bands (ev):

   -58.9820 -58.9784 -58.9681 -58.9660 -33.0649 -33.0601 -33.0441 -33.0374
   -32.9816 -32.9220 -32.8827 -32.8807 -32.8800 -32.8340 -32.8310 -32.8222
   -12.9096 -12.7814 -11.7080 -11.6632 -11.4093 -11.2697 -10.8861 -10.8631
   -10.7061 -10.6630   0.2980   0.3080   0.3767   0.4194   0.8129   1.2418
     1.7805   2.0347   2.0411   2.3578   2.4487   2.5007   2.8704   2.9701
     3.0040   3.0642   3.0953   3.1507   3.2197   3.2900   3.2902   3.3445
     3.5650   3.8975   3.9261   4.0618   4.0915   4.1926   4.2193   4.4077

          k = 0.0000 0.2757 0.0000 (  8490 PWs)   bands (ev):

   -58.9834 -58.9789 -58.9654 -58.9649 -33.0683 -33.0635 -33.0502 -33.0434
   -32.9808 -32.9213 -32.8824 -32.8805 -32.8796 -32.8340 -32.8310 -32.8222
   -12.8150 -12.7004 -11.6512 -11.6298 -11.3648 -11.2335 -10.8730 -10.8441
   -10.6288 -10.5998   0.2322   0.2451   0.3246   0.3665   0.5162   0.6553
     1.0881   1.2548   1.2609   1.4726   2.0163   2.0903   2.1638   2.7559
     2.7907   3.0113   3.2015   3.2016   3.4361   3.6152   3.7601   3.8468
     3.9839   4.1040   4.1091   4.1281   4.1569   4.5605   4.5930   4.8415

          k = 0.3395 0.0000 0.0000 (  8476 PWs)   bands (ev):

   -58.9768 -58.9728 -58.9678 -58.9648 -33.0564 -33.0528 -33.0413 -33.0371
   -32.9861 -32.9695 -32.9502 -32.9475 -32.8747 -32.8696 -32.8494 -32.8254
   -12.2538 -12.1126 -11.5108 -11.4490 -11.3594 -11.2194 -10.8169 -10.7868
   -10.7684 -10.6988  -0.2789  -0.1966   0.5707   0.7319   0.9399   1.0764
     1.1764   1.6430   1.6665   2.0108   2.0867   2.2209   2.6232   2.6917
     2.7102   2.9070   2.9428   2.9741   3.1585   3.2153   3.3387   3.3936
     3.4618   3.6426   3.9582   4.0525   4.0991   4.2869   4.4615   4.6321

          k = 0.3395 0.2757 0.0000 (  8498 PWs)   bands (ev):

   -58.9759 -58.9740 -58.9686 -58.9647 -33.0603 -33.0567 -33.0467 -33.0424
   -32.9855 -32.9691 -32.9496 -32.9469 -32.8746 -32.8696 -32.8494 -32.8254
   -12.1737 -12.0524 -11.4940 -11.4438 -11.2837 -11.1844 -10.7696 -10.7427
   -10.6494 -10.6283  -0.2850  -0.2018   0.4768   0.6208   0.6953   0.8044
     0.9817   1.0459   1.1643   1.4464   1.5148   1.7485   2.1409   2.1553
     2.3078   2.3252   2.4790   2.6227   2.8202   3.2651   3.5523   3.7509
     3.9823   4.0156   4.4071   4.5496   4.6424   4.7570   4.8508   4.8653

     highest occupied level (ev):     4.8653

!    total energy              =    -921.90143739 Ry
     Harris-Foulkes estimate   =    -921.90143739 Ry
     estimated scf accuracy    <          6.4E-11 Ry

     The total energy is the sum of the following terms:

     one-electron contribution =    -553.37001005 Ry
     hartree contribution      =     319.98832707 Ry
     xc contribution           =    -174.45575474 Ry
     ewald contribution        =    -513.92288525 Ry
     Dispersion Correction     =      -0.14111442 Ry

     convergence has been achieved in  34 iterations

     Forces acting on atoms (cartesian axes, Ry/au):

     atom    1 type  1   force =    -0.00000000   -0.00833798   -0.01342619
     atom    2 type  1   force =     0.00000000    0.00833798    0.01342619
     atom    3 type  1   force =     0.00000000    0.00833798   -0.01342619
     atom    4 type  1   force =     0.00000000   -0.00833798    0.01342619
     atom    5 type  2   force =     0.00000000    0.00709353    0.00024033
     atom    6 type  2   force =     0.00000000   -0.00709353   -0.00024033
     atom    7 type  2   force =     0.00000000   -0.00709353    0.00024033
     atom    8 type  2   force =    -0.00000000    0.00709353   -0.00024033
     atom    9 type  2   force =     0.00000000   -0.01128107   -0.00101759
     atom   10 type  2   force =     0.00000000    0.01128107    0.00101759
     atom   11 type  2   force =     0.00000000    0.01128107   -0.00101759
     atom   12 type  2   force =    -0.00000000   -0.00409066    0.00000000
     atom   13 type  2   force =     0.00000000    0.00409066    0.00000000
     atom   14 type  2   force =     0.00000000   -0.01128107    0.00101759

     Total force =     0.041801     Total SCF correction =     0.000012


     Computing stress (Cartesian axis) and pressure

          total   stress  (Ry/bohr**3)                   (kbar)     P=  -91.10
  -0.00048258   0.00000000   0.00000000        -70.99      0.00      0.00
   0.00000000  -0.00070811   0.00000000          0.00   -104.17      0.00
   0.00000000   0.00000000  -0.00066717          0.00      0.00    -98.14


     number of scf cycles    =   4
     number of bfgs steps    =   3

     enthalpy old            =    -921.8711551237 Ry
     enthalpy new            =    -921.9014373892 Ry

     CASE: enthalpy_new < enthalpy_old

     new trust radius        =       0.0987817108 bohr
     new conv_thr            =            1.0E-10 Ry

     new unit-cell volume =   1103.13640 a.u.^3 (   163.46795 Ang^3 )
     density =      3.69514 g/cm^3

CELL_PARAMETERS (alat=  6.68268247)
   0.976779298   0.000000000   0.000000000
   0.000000000   1.191476869   0.000000000
   0.000000000   0.000000000   3.176103728

ATOMIC_POSITIONS (crystal)
V       -0.000000000   0.383467036   0.648805589
V        0.500000008   0.616532980   0.851194434
V        0.500000008   0.616532980   0.148805582
V       -0.000000000   0.383467036   0.351194426
O        0.500000008   0.497698313   0.680216378
O        0.000000000   0.502301703   0.819783645
O        0.000000000   0.502301703   0.180216371
O        0.500000008   0.497698313   0.319783637
O        0.000000000   0.011429127   0.354294426
O        0.500000008   0.988570889   0.145705583
O        0.500000008   0.988570889   0.854294433
O        0.500000008   0.499464461   0.000000000
O        0.000000000   0.500535556   0.500000008
O        0.000000000   0.011429127   0.645705591



     Writing output data file v2o5.save/
     NEW-OLD atomic charge density approx. for the potential

     Check: negative core charge=   -0.000049
[...]

     iteration #  6     ecut=    55.00 Ry     beta= 0.70
     Davidson diagonalization with overlap
     ethr =  3.86E-04,  avg # of iterations =  4.0

     total cpu time spent up to now is      564.6 secs

     total energy              =    -921.71169924 Ry
     Harris-Foulkes estimate   =    -921.71997018 Ry
     estimated scf accuracy    <       0.03332375 Ry

     iteration #  7     ecut=    55.00 Ry     beta= 0.70
     Davidson diagonalization with overlap
     ethr =  2.98E-05,  avg # of iterations =  5.0

     total cpu time spent up to now is      565.5 secs

     total energy              =    -921.71581837 Ry
     Harris-Foulkes estimate   =    -921.73215574 Ry
     estimated scf accuracy    <       0.10363426 Ry

     iteration #  8     ecut=    55.00 Ry     beta= 0.70
     Davidson diagonalization with overlap
     ethr =  2.98E-05,  avg # of iterations =  4.0

     total cpu time spent up to now is      566.1 secs

     total energy              =    -921.71586227 Ry
     Harris-Foulkes estimate   =    -921.72021056 Ry
     estimated scf accuracy    <       0.02402518 Ry

     iteration #  9     ecut=    55.00 Ry     beta= 0.70
     Davidson diagonalization with overlap
     ethr =  2.15E-05,  avg # of iterations =  3.8

     total cpu time spent up to now is      566.5 secs

     total energy              =    -921.71673381 Ry
     Harris-Foulkes estimate   =    -921.71796645 Ry
     estimated scf accuracy    <       0.00605552 Ry

     iteration # 10     ecut=    55.00 Ry     beta= 0.70
     Davidson diagonalization with overlap
     ethr =  5.41E-06,  avg # of iterations =  4.2

     total cpu time spent up to now is      567.3 secs

     total energy              =    -921.71857521 Ry
     Harris-Foulkes estimate   =    -921.71887622 Ry
     estimated scf accuracy    <       0.00158104 Ry

     iteration # 11     ecut=    55.00 Ry     beta= 0.70
     Davidson diagonalization with overlap
     ethr =  1.41E-06,  avg # of iterations =  2.5

     total cpu time spent up to now is      567.7 secs

     total energy              =    -921.71843003 Ry
     Harris-Foulkes estimate   =    -921.71863409 Ry
     estimated scf accuracy    <       0.00082281 Ry

     iteration # 12     ecut=    55.00 Ry     beta= 0.70
     Davidson diagonalization with overlap
     ethr =  7.35E-07,  avg # of iterations =  4.0

     total cpu time spent up to now is      568.3 secs

     total energy              =    -921.71865203 Ry
     Harris-Foulkes estimate   =    -921.71866846 Ry
     estimated scf accuracy    <       0.00014093 Ry

     iteration # 13     ecut=    55.00 Ry     beta= 0.70
     Davidson diagonalization with overlap
     ethr =  1.26E-07,  avg # of iterations =  1.8

     total cpu time spent up to now is      568.7 secs

     total energy              =    -921.71864012 Ry
     Harris-Foulkes estimate   =    -921.71865542 Ry
     estimated scf accuracy    <       0.00010055 Ry

     iteration # 14     ecut=    55.00 Ry     beta= 0.70
     Davidson diagonalization with overlap
     ethr =  8.98E-08,  avg # of iterations =  3.2

     total cpu time spent up to now is      569.2 secs

     total energy              =    -921.71864401 Ry
     Harris-Foulkes estimate   =    -921.71864635 Ry
     estimated scf accuracy    <       0.00002355 Ry

     iteration # 15     ecut=    55.00 Ry     beta= 0.70
     Davidson diagonalization with overlap
     ethr =  2.10E-08,  avg # of iterations =  4.2

     total cpu time spent up to now is      569.9 secs

     total energy              =    -921.71865100 Ry
     Harris-Foulkes estimate   =    -921.71865100 Ry
     estimated scf accuracy    <       0.00000010 Ry

     iteration # 16     ecut=    55.00 Ry     beta= 0.70
     Davidson diagonalization with overlap
     ethr =  9.28E-11,  avg # of iterations =  5.5

     total cpu time spent up to now is      570.9 secs

     total energy              =    -921.71865117 Ry
     Harris-Foulkes estimate   =    -921.71865123 Ry
     estimated scf accuracy    <       0.00000077 Ry

     iteration # 17     ecut=    55.00 Ry     beta= 0.70
     Davidson diagonalization with overlap
     ethr =  9.28E-11,  avg # of iterations =  3.5

     total cpu time spent up to now is      571.3 secs

     total energy              =    -921.71865115 Ry
     Harris-Foulkes estimate   =    -921.71865118 Ry
     estimated scf accuracy    <       0.00000052 Ry

     iteration # 18     ecut=    55.00 Ry     beta= 0.70
     Davidson diagonalization with overlap
     ethr =  9.28E-11,  avg # of iterations =  3.0

     total cpu time spent up to now is      571.8 secs

     total energy              =    -921.71865110 Ry
     Harris-Foulkes estimate   =    -921.71865116 Ry
     estimated scf accuracy    <       0.00000034 Ry

     iteration # 19     ecut=    55.00 Ry     beta= 0.70
     Davidson diagonalization with overlap
     ethr =  9.28E-11,  avg # of iterations =  4.0

     total cpu time spent up to now is      572.5 secs

     total energy              =    -921.71865113 Ry
     Harris-Foulkes estimate   =    -921.71865113 Ry
     estimated scf accuracy    <       0.00000002 Ry

     iteration # 20     ecut=    55.00 Ry     beta= 0.70
     Davidson diagonalization with overlap
     ethr =  1.65E-11,  avg # of iterations =  1.2

     total cpu time spent up to now is      572.8 secs

     total energy              =    -921.71865113 Ry
     Harris-Foulkes estimate   =    -921.71865113 Ry
     estimated scf accuracy    <       0.00000002 Ry

     iteration # 21     ecut=    55.00 Ry     beta= 0.70
     Davidson diagonalization with overlap
     ethr =  1.65E-11,  avg # of iterations =  1.5

     total cpu time spent up to now is      573.2 secs

     total energy              =    -921.71865113 Ry
     Harris-Foulkes estimate   =    -921.71865113 Ry
     estimated scf accuracy    <       0.00000002 Ry

     iteration # 22     ecut=    55.00 Ry     beta= 0.70
     Davidson diagonalization with overlap
     ethr =  1.65E-11,  avg # of iterations =  1.0

     total cpu time spent up to now is      573.6 secs

     total energy              =    -921.71865113 Ry
     Harris-Foulkes estimate   =    -921.71865113 Ry
     estimated scf accuracy    <       0.00000001 Ry

     iteration # 23     ecut=    55.00 Ry     beta= 0.70
     Davidson diagonalization with overlap
     ethr =  1.11E-11,  avg # of iterations =  1.0

     total cpu time spent up to now is      573.9 secs

     total energy              =    -921.71865113 Ry
     Harris-Foulkes estimate   =    -921.71865113 Ry
     estimated scf accuracy    <       0.00000001 Ry

     iteration # 24     ecut=    55.00 Ry     beta= 0.70
     Davidson diagonalization with overlap
     ethr =  9.63E-12,  avg # of iterations =  2.8

     total cpu time spent up to now is      574.3 secs

     total energy              =    -921.71865113 Ry
     Harris-Foulkes estimate   =    -921.71865113 Ry
     estimated scf accuracy    <          5.2E-09 Ry

     iteration # 25     ecut=    55.00 Ry     beta= 0.70
     Davidson diagonalization with overlap
     ethr =  4.64E-12,  avg # of iterations =  4.0

     total cpu time spent up to now is      574.9 secs

     total energy              =    -921.71865113 Ry
     Harris-Foulkes estimate   =    -921.71865113 Ry
     estimated scf accuracy    <          2.1E-09 Ry

     iteration # 26     ecut=    55.00 Ry     beta= 0.70
     Davidson diagonalization with overlap
     ethr =  1.86E-12,  avg # of iterations =  4.0

     total cpu time spent up to now is      575.4 secs

     total energy              =    -921.71865113 Ry
     Harris-Foulkes estimate   =    -921.71865113 Ry
     estimated scf accuracy    <          1.1E-09 Ry

     iteration # 27     ecut=    55.00 Ry     beta= 0.70
     Davidson diagonalization with overlap
     ethr =  1.03E-12,  avg # of iterations =  3.5

     total cpu time spent up to now is      575.8 secs

     total energy              =    -921.71865113 Ry
     Harris-Foulkes estimate   =    -921.71865113 Ry
     estimated scf accuracy    <          1.4E-09 Ry

     iteration # 28     ecut=    55.00 Ry     beta= 0.70
     Davidson diagonalization with overlap
     ethr =  1.03E-12,  avg # of iterations =  4.8

     total cpu time spent up to now is      576.6 secs

     total energy              =    -921.71865113 Ry
     Harris-Foulkes estimate   =    -921.71865113 Ry
     estimated scf accuracy    <          6.3E-10 Ry

     iteration # 29     ecut=    55.00 Ry     beta= 0.70
     Davidson diagonalization with overlap
     ethr =  5.62E-13,  avg # of iterations =  4.0

     total cpu time spent up to now is      577.1 secs

     total energy              =    -921.71865113 Ry
     Harris-Foulkes estimate   =    -921.71865113 Ry
     estimated scf accuracy    <          1.1E-10 Ry

     iteration # 30     ecut=    55.00 Ry     beta= 0.70
     Davidson diagonalization with overlap
     ethr =  1.01E-13,  avg # of iterations =  4.2

     total cpu time spent up to now is      577.7 secs

     total energy              =    -921.71865113 Ry
     Harris-Foulkes estimate   =    -921.71865113 Ry
     estimated scf accuracy    <          1.2E-10 Ry

     iteration # 31     ecut=    55.00 Ry     beta= 0.70
     Davidson diagonalization with overlap
     ethr =  1.01E-13,  avg # of iterations =  1.0

     total cpu time spent up to now is      578.1 secs

     total energy              =    -921.71865113 Ry
     Harris-Foulkes estimate   =    -921.71865113 Ry
     estimated scf accuracy    <          1.1E-10 Ry

     iteration # 32     ecut=    55.00 Ry     beta= 0.70
     Davidson diagonalization with overlap
     ethr =  1.01E-13,  avg # of iterations =  3.5

     total cpu time spent up to now is      578.5 secs

     total energy              =    -921.71865113 Ry
     Harris-Foulkes estimate   =    -921.71865113 Ry
     estimated scf accuracy    <          1.3E-10 Ry

     iteration # 33     ecut=    55.00 Ry     beta= 0.70
     Davidson diagonalization with overlap
     ethr =  1.01E-13,  avg # of iterations =  1.0

     total cpu time spent up to now is      578.9 secs

     total energy              =    -921.71865113 Ry
     Harris-Foulkes estimate   =    -921.71865113 Ry
     estimated scf accuracy    <          1.5E-10 Ry

     iteration # 34     ecut=    55.00 Ry     beta= 0.70
     Davidson diagonalization with overlap
     ethr =  1.01E-13,  avg # of iterations =  1.0

     total cpu time spent up to now is      579.2 secs

     total energy              =    -921.71865113 Ry
     Harris-Foulkes estimate   =    -921.71865113 Ry
     estimated scf accuracy    <          1.2E-10 Ry

     iteration # 35     ecut=    55.00 Ry     beta= 0.70
     Davidson diagonalization with overlap
     ethr =  1.01E-13,  avg # of iterations =  3.2

     total cpu time spent up to now is      579.7 secs

     total energy              =    -921.71865113 Ry
     Harris-Foulkes estimate   =    -921.71865113 Ry
     estimated scf accuracy    <          6.3E-11 Ry

     iteration # 36     ecut=    55.00 Ry     beta= 0.70
     Davidson diagonalization with overlap
     ethr =  1.00E-13,  avg # of iterations =  4.0

     total cpu time spent up to now is      580.4 secs

     total energy              =    -921.71865113 Ry
     Harris-Foulkes estimate   =    -921.71865113 Ry
     estimated scf accuracy    <          1.9E-10 Ry

     iteration # 37     ecut=    55.00 Ry     beta= 0.70
     Davidson diagonalization with overlap
     ethr =  1.00E-13,  avg # of iterations =  2.8

     total cpu time spent up to now is      580.8 secs

     total energy              =    -921.71865113 Ry
     Harris-Foulkes estimate   =    -921.71865113 Ry
     estimated scf accuracy    <          8.7E-11 Ry

     iteration # 38     ecut=    55.00 Ry     beta= 0.70
     Davidson diagonalization with overlap
     ethr =  1.00E-13,  avg # of iterations =  1.0

     total cpu time spent up to now is      581.2 secs

     total energy              =    -921.71865113 Ry
     Harris-Foulkes estimate   =    -921.71865113 Ry
     estimated scf accuracy    <          6.7E-11 Ry

     iteration # 39     ecut=    55.00 Ry     beta= 0.70
     Davidson diagonalization with overlap
     ethr =  1.00E-13,  avg # of iterations =  4.0

     total cpu time spent up to now is      581.7 secs

     total energy              =    -921.71865113 Ry
     Harris-Foulkes estimate   =    -921.71865113 Ry
     estimated scf accuracy    <          1.4E-12 Ry

     iteration # 40     ecut=    55.00 Ry     beta= 0.70
     Davidson diagonalization with overlap
     ethr =  1.00E-13,  avg # of iterations =  1.0

     total cpu time spent up to now is      582.0 secs

     total energy              =    -921.71865113 Ry
     Harris-Foulkes estimate   =    -921.71865113 Ry
     estimated scf accuracy    <          1.7E-12 Ry

     iteration # 41     ecut=    55.00 Ry     beta= 0.70
     Davidson diagonalization with overlap
     ethr =  1.00E-13,  avg # of iterations =  1.0

     total cpu time spent up to now is      582.4 secs

     End of self-consistent calculation

          k = 0.0000 0.0000 0.0000 (  7351 PWs)   bands (ev):

   -58.2152 -58.2093 -58.1964 -58.1955 -32.3008 -32.2936 -32.2816 -32.2706
   -32.2518 -32.1867 -32.1461 -32.1294 -32.1260 -32.0837 -32.0804 -32.0770
   -12.2181 -12.0658 -10.9924 -10.8971 -10.6993 -10.5638 -10.1324 -10.1014
    -9.9792  -9.9121   1.0989   1.1100   1.1312   1.1794   1.5506   1.9709
     2.5124   2.7701   2.8809   3.2821   3.3421   3.3496   3.7349   3.7722
     3.7728   3.8234   3.8427   3.9428   4.0905   4.1104   4.1993   4.2463
     4.6126   4.6935   4.7581   4.8879   4.9023   4.9945   5.0173   5.2624

          k = 0.0000 0.2883 0.0000 (  7388 PWs)   bands (ev):

   -58.2165 -58.2124 -58.2012 -58.1923 -32.3077 -32.3006 -32.2931 -32.2822
   -32.2508 -32.1855 -32.1463 -32.1288 -32.1252 -32.0837 -32.0803 -32.0770
   -12.0646 -11.9324 -10.8780 -10.8381 -10.6644 -10.5278 -10.1036 -10.0745
    -9.8276  -9.8014   0.9813   0.9959   1.0155   1.0910   1.2029   1.2207
     1.6602   1.8341   1.9010   2.0979   2.6700   2.7421   2.8394   3.5379
     3.5928   3.6957   3.9179   3.9763   4.2461   4.5507   4.6781   4.6859
     4.8006   5.0126   5.0245   5.0965   5.1551   5.4138   5.5724   5.7941

          k = 0.3417 0.0000 0.0000 (  7340 PWs)   bands (ev):

   -58.2081 -58.2038 -58.1967 -58.1917 -32.2913 -32.2862 -32.2766 -32.2693
   -32.2523 -32.2282 -32.2045 -32.2030 -32.1289 -32.1280 -32.1049 -32.0849
   -11.5528 -11.3771 -10.7946 -10.6563 -10.6368 -10.5064 -10.0762 -10.0745
   -10.0340  -9.9625   0.5255   0.6248   1.2717   1.4757   1.6635   1.8651
     1.9999   2.4045   2.4668   2.8800   2.9398   3.0622   3.5279   3.5457
     3.5904   3.6162   3.6628   3.7488   4.0951   4.2314   4.2851   4.3775
     4.5135   4.5609   4.6817   4.7073   4.8880   4.9406   5.2072   5.5009

          k = 0.3417 0.2883 0.0000 (  7342 PWs)   bands (ev):

   -58.2079 -58.2029 -58.1971 -58.1939 -32.2985 -32.2941 -32.2866 -32.2794
   -32.2521 -32.2272 -32.2034 -32.2020 -32.1289 -32.1280 -32.1050 -32.0849
   -11.4206 -11.2753 -10.7317 -10.6484 -10.5680 -10.4720  -9.9901  -9.9652
    -9.8565  -9.8406   0.4970   0.5924   1.1271   1.2938   1.3529   1.4242
     1.6875   1.7587   1.7873   2.0137   2.0826   2.4549   2.8121   2.8392
     3.0908   3.1614   3.2711   3.3368   3.6727   4.1526   4.4294   4.6483
     4.8957   4.9129   5.3671   5.4393   5.5601   5.6367   5.7301   5.7805

     highest occupied level (ev):     5.7941

!    total energy              =    -921.71865113 Ry
     Harris-Foulkes estimate   =    -921.71865113 Ry
     estimated scf accuracy    <          8.1E-13 Ry

     The total energy is the sum of the following terms:

     one-electron contribution =    -514.31767161 Ry
     hartree contribution      =     303.74227209 Ry
     xc contribution           =    -174.58294794 Ry
     ewald contribution        =    -536.40997717 Ry
     Dispersion Correction     =      -0.15032650 Ry

     convergence has been achieved in  41 iterations

     Forces acting on atoms (cartesian axes, Ry/au):

     atom    1 type  1   force =     0.00000000   -0.01012050   -0.00097022
     atom    2 type  1   force =     0.00000000    0.01012050    0.00097022
     atom    3 type  1   force =    -0.00000000    0.01012050   -0.00097022
     atom    4 type  1   force =     0.00000000   -0.01012050    0.00097022
     atom    5 type  2   force =    -0.00000000    0.00180433    0.00121234
     atom    6 type  2   force =     0.00000000   -0.00180433   -0.00121234
     atom    7 type  2   force =     0.00000000   -0.00180433    0.00121234
     atom    8 type  2   force =     0.00000000    0.00180433   -0.00121234
     atom    9 type  2   force =     0.00000000    0.00836103    0.00107834
     atom   10 type  2   force =     0.00000000   -0.00836103   -0.00107834
     atom   11 type  2   force =     0.00000000   -0.00836103    0.00107834
     atom   12 type  2   force =     0.00000000   -0.00046305    0.00000000
     atom   13 type  2   force =     0.00000000    0.00046305    0.00000000
     atom   14 type  2   force =     0.00000000    0.00836103   -0.00107834

     Total force =     0.026778     Total SCF correction =     0.000002


     Computing stress (Cartesian axis) and pressure

          total   stress  (Ry/bohr**3)                   (kbar)     P= -161.86
  -0.00091423   0.00000000   0.00000000       -134.49      0.00      0.00
   0.00000000  -0.00140268   0.00000000          0.00   -206.34      0.00
   0.00000000   0.00000000  -0.00098395          0.00      0.00   -144.74


     Writing output data file v2o5.save/

     init_run     :      0.78s CPU      0.80s WALL (       2 calls)
     electrons    :    519.64s CPU    536.70s WALL (      33 calls)
     update_pot   :     11.36s CPU     11.42s WALL (      31 calls)
     forces       :     12.83s CPU     12.97s WALL (      33 calls)
     stress       :     19.99s CPU     20.21s WALL (      33 calls)

     Called by init_run:
     wfcinit      :      0.37s CPU      0.38s WALL (       2 calls)
     potinit      :      0.13s CPU      0.13s WALL (       2 calls)
     hinit0       :      0.26s CPU      0.27s WALL (       2 calls)

     Called by electrons:
     c_bands      :    491.84s CPU    507.29s WALL (     844 calls)
     sum_band     :     21.23s CPU     22.48s WALL (     844 calls)
     v_of_rho     :      2.66s CPU      2.68s WALL (     864 calls)
     mix_rho      :      1.50s CPU      1.54s WALL (     844 calls)

     Called by c_bands:
     init_us_2    :      3.06s CPU      3.62s WALL (    7024 calls)
     cegterg      :    481.48s CPU    494.81s WALL (    3376 calls)

     Called by sum_band:

     Called by *egterg:
     h_psi        :    224.52s CPU    231.67s WALL (   14333 calls)
     g_psi        :      0.62s CPU      0.63s WALL (   10949 calls)
     cdiaghg      :    121.06s CPU    124.45s WALL (   14149 calls)

     Called by h_psi:
     h_psi:pot    :    222.99s CPU    230.06s WALL (   14333 calls)
     h_psi:calbec :     70.30s CPU     72.82s WALL (   14333 calls)
     vloc_psi     :    104.89s CPU    108.87s WALL (   14333 calls)
     add_vuspsi   :     47.73s CPU     48.32s WALL (   14333 calls)

     General routines
     calbec       :     75.64s CPU     78.33s WALL (   14993 calls)
     fft          :      2.30s CPU      2.32s WALL (    9476 calls)
     ffts         :      0.16s CPU      0.17s WALL (     844 calls)
     fftw         :    113.47s CPU    118.01s WALL ( 1215432 calls)

     Parallel routines
     fft_scatt_xy :      8.42s CPU      8.74s WALL ( 1225752 calls)
     fft_scatt_yz :     72.61s CPU     75.70s WALL ( 1225752 calls)

     PWSCF        :   9m25.55s CPU   9m43.22s WALL


   This run was terminated on:  20:21:52  18May2024            

=------------------------------------------------------------------------------=
   JOB DONE.
=------------------------------------------------------------------------------=
