
     Program PHONON v.6.7MaX starts on 13Oct2024 at 15:27:35 

     This program is part of the open-source Quantum ESPRESSO suite
     for quantum simulation of materials; please cite
         "P. Giannozzi et al., J. Phys.:Condens. Matter 21 395502 (2009);
         "P. Giannozzi et al., J. Phys.:Condens. Matter 29 465901 (2017);
          URL http://www.quantum-espresso.org", 
     in publications or presentations arising from this work. More details at
     http://www.quantum-espresso.org/quote

     Parallel version (MPI), running on    32 processors

     MPI processes distributed on     1 nodes
     R & G space division:  proc/nbgrp/npool/nimage =      32
     Reading input from ph.in
      Title line not specified: using 'default'.

     Reading xml data from directory:

     outdir/v2o5.save/
     Message from routine read_pp_mesh:
     mesh size missing, using the one in header
     Message from routine read_pp_mesh:
     mesh size missing, using the one in header

     IMPORTANT: XC functional enforced from input :
     Exchange-correlation= PBE
                           (   1   4   3   4   0   0   0)
     Any further DFT definition will be discarded
     Please, verify this is what you really want


     Parallelization info
     --------------------
     sticks:   dense  smooth     PW     G-vecs:    dense   smooth      PW
     Min         112      44     12                14725     3718     524
     Max         113      45     14                14736     3731     532
     Sum        3589    1435    387               471309   119147   16947

     Reading collected, re-writing distributed wavefunctions

     Calculation of q =    0.0000000   0.0000000   0.0000000

     default                                                                    

     bravais-lattice index     =            8
     lattice parameter (alat)  =       6.6827  a.u.
     unit-cell volume          =    1233.7754 (a.u.)^3
     number of atoms/cell      =           14
     number of atomic types    =            2
     kinetic-energy cut-off    =      80.0000  Ry
     charge density cut-off    =     800.0000  Ry
     convergence threshold     =      1.0E-14
     beta                      =       0.5000
     number of iterations used =            4
     Exchange-correlation= PBE
                           (   1   4   3   4   0   0   0)


     celldm(1)=    6.68270  celldm(2)=    1.26392  celldm(3)=    3.27085
     celldm(4)=    0.00000  celldm(5)=    0.00000  celldm(6)=    0.00000

     crystal axes: (cart. coord. in units of alat)
               a(1) = (  1.0000  0.0000  0.0000 )  
               a(2) = (  0.0000  1.2639  0.0000 )  
               a(3) = (  0.0000  0.0000  3.2708 )  

     reciprocal axes: (cart. coord. in units 2 pi/alat)
               b(1) = (  1.0000  0.0000  0.0000 )  
               b(2) = (  0.0000  0.7912  0.0000 )  
               b(3) = (  0.0000  0.0000  0.3057 )  


     Atoms inside the unit cell: 

     Cartesian axes

     site n.  atom      mass           positions (alat units)
        1     V   50.9415   tau(    1) = (    0.00000    0.48393    2.11974  )
        2     V   50.9415   tau(    2) = (    0.50000    0.77999    2.78653  )
        3     V   50.9415   tau(    3) = (    0.50000    0.77999    0.48431  )
        4     V   50.9415   tau(    4) = (    0.00000    0.48393    1.15111  )
        5     O   15.9994   tau(    5) = (    0.50000    0.62220    2.22848  )
        6     O   15.9994   tau(    6) = (    0.00000    0.64173    2.67779  )
        7     O   15.9994   tau(    7) = (    0.00000    0.64173    0.59305  )
        8     O   15.9994   tau(    8) = (    0.50000    0.62220    1.04237  )
        9     O   15.9994   tau(    9) = (    0.00000    0.03657    1.15868  )
       10     O   15.9994   tau(   10) = (    0.50000    1.22735    0.47674  )
       11     O   15.9994   tau(   11) = (    0.50000    1.22735    2.79410  )
       12     O   15.9994   tau(   12) = (    0.50000    0.64338    0.00000  )
       13     O   15.9994   tau(   13) = (    0.00000    0.62054    1.63542  )
       14     O   15.9994   tau(   14) = (    0.00000    0.03657    2.11217  )

     Computing dynamical matrix for 
                    q = (   0.0000000   0.0000000   0.0000000 )

      9 Sym.Ops. (with q -> -q+G )


     G cutoff =  904.9698  (  14728 G-vectors)     FFT grid: ( 64, 80,200)
     G cutoff =  361.9879  (   3729 G-vectors)  smooth grid: ( 40, 50,128)
     number of k points=     4
                       cart. coord. in units 2pi/alat
        k(    1) = (   0.0000000   0.0000000   0.0000000), wk =   0.2222222
        k(    2) = (   0.0000000   0.2637294   0.0000000), wk =   0.4444444
        k(    3) = (   0.3333333   0.0000000   0.0000000), wk =   0.4444444
        k(    4) = (   0.3333333   0.2637294   0.0000000), wk =   0.8888889

     PseudoPot. # 1 for V  read from file:
     /home/mpicuntureo/pseudos/v.nc.upf
     MD5 check sum: 40fb93c06b4f9d8c28c5ccd071294a04
     Pseudo is Norm-conserving + core correction, Zval = 13.0
     Generated using ONCVPSP code by D. R. Hamann
     Using radial grid of 1536 points,  6 beta functions with: 
                l(1) =   0
                l(2) =   0
                l(3) =   1
                l(4) =   1
                l(5) =   2
                l(6) =   2

     PseudoPot. # 2 for O  read from file:
     /home/mpicuntureo/pseudos/o.nc.upf
     MD5 check sum: 3e3f909f7470e8921608ab6b1f57bbae
     Pseudo is Norm-conserving + core correction, Zval =  6.0
     Generated using ONCVPSP code by D. R. Hamann
     Using radial grid of  936 points,  5 beta functions with: 
                l(1) =   0
                l(2) =   0
                l(3) =   1
                l(4) =   1
                l(5) =   2

     Mode symmetry, D_2h (mmm)  point group:


     Electric field:
     Dielectric constant
     Born effective charges as d Force / d E
     Raman tensor


     Atomic displacements:
     There are   42 irreducible representations

     Representation     1      1 modes -  To be done

     Representation     2      1 modes -  To be done

     Representation     3      1 modes -  To be done

     Representation     4      1 modes -  To be done

     Representation     5      1 modes -  To be done

     Representation     6      1 modes -  To be done

     Representation     7      1 modes -  To be done

     Representation     8      1 modes -  To be done

     Representation     9      1 modes -  To be done

     Representation    10      1 modes -  To be done

     Representation    11      1 modes -  To be done

     Representation    12      1 modes -  To be done

     Representation    13      1 modes -  To be done

     Representation    14      1 modes -  To be done

     Representation    15      1 modes -  To be done

     Representation    16      1 modes -  To be done

     Representation    17      1 modes -  To be done

     Representation    18      1 modes -  To be done

     Representation    19      1 modes -  To be done

     Representation    20      1 modes -  To be done

     Representation    21      1 modes -  To be done

     Representation    22      1 modes -  To be done

     Representation    23      1 modes -  To be done

     Representation    24      1 modes -  To be done

     Representation    25      1 modes -  To be done

     Representation    26      1 modes -  To be done

     Representation    27      1 modes -  To be done

     Representation    28      1 modes -  To be done

     Representation    29      1 modes -  To be done

     Representation    30      1 modes -  To be done

     Representation    31      1 modes -  To be done

     Representation    32      1 modes -  To be done

     Representation    33      1 modes -  To be done

     Representation    34      1 modes -  To be done

     Representation    35      1 modes -  To be done

     Representation    36      1 modes -  To be done

     Representation    37      1 modes -  To be done

     Representation    38      1 modes -  To be done

     Representation    39      1 modes -  To be done

     Representation    40      1 modes -  To be done

     Representation    41      1 modes -  To be done

     Representation    42      1 modes -  To be done



     Alpha used in Ewald sum =   2.8000

     -------------------------------------------------
     Parameters for Dispersion (Grimme-D2) Correction:
     -------------------------------------------------
       atom      VdW radius       C_6     

        V          2.952        374.666
        O          2.536         24.284

     Calculating the D2 contribution to the dynamical matrix.
     D2 energy =       -0.13056891 Ry
     Done.

     PHONON       :      3.18s CPU      3.32s WALL


     Electric Fields Calculation

      iter #   1 total cpu time :    50.5 secs   av.it.:  11.9
      thresh= 1.000E-02 alpha_mix =  0.500 |ddv_scf|^2 =  2.576E-07

      iter #   2 total cpu time :    70.2 secs   av.it.:  21.1
      thresh= 5.075E-05 alpha_mix =  0.500 |ddv_scf|^2 =  1.172E-06

      iter #   3 total cpu time :    87.0 secs   av.it.:  17.4
      thresh= 1.083E-04 alpha_mix =  0.500 |ddv_scf|^2 =  7.352E-08

      iter #   4 total cpu time :   104.6 secs   av.it.:  18.4
      thresh= 2.711E-05 alpha_mix =  0.500 |ddv_scf|^2 =  1.476E-09

      iter #   5 total cpu time :   124.4 secs   av.it.:  21.3
      thresh= 3.842E-06 alpha_mix =  0.500 |ddv_scf|^2 =  3.302E-09

      iter #   6 total cpu time :   143.1 secs   av.it.:  19.7
      thresh= 5.746E-06 alpha_mix =  0.500 |ddv_scf|^2 =  7.437E-11

      iter #   7 total cpu time :   163.7 secs   av.it.:  21.3
      thresh= 8.624E-07 alpha_mix =  0.500 |ddv_scf|^2 =  3.321E-10

      iter #   8 total cpu time :   181.2 secs   av.it.:  18.5
      thresh= 1.822E-06 alpha_mix =  0.500 |ddv_scf|^2 =  1.984E-11

      iter #   9 total cpu time :   200.4 secs   av.it.:  20.2
      thresh= 4.454E-07 alpha_mix =  0.500 |ddv_scf|^2 =  4.147E-11

      iter #  10 total cpu time :   218.6 secs   av.it.:  19.2
      thresh= 6.440E-07 alpha_mix =  0.500 |ddv_scf|^2 =  3.865E-12

      iter #  11 total cpu time :   237.6 secs   av.it.:  19.8
      thresh= 1.966E-07 alpha_mix =  0.500 |ddv_scf|^2 =  9.593E-14

      iter #  12 total cpu time :   257.6 secs   av.it.:  21.0
      thresh= 3.097E-08 alpha_mix =  0.500 |ddv_scf|^2 =  9.954E-14

      iter #  13 total cpu time :   276.2 secs   av.it.:  19.3
      thresh= 3.155E-08 alpha_mix =  0.500 |ddv_scf|^2 =  2.188E-14

      iter #  14 total cpu time :   294.6 secs   av.it.:  19.9
      thresh= 1.479E-08 alpha_mix =  0.500 |ddv_scf|^2 =  6.963E-15

     End of electric fields calculation

          Dielectric constant in cartesian axis 

          (       5.827607825       0.000000000       0.000000000 )
          (       0.000000000       3.674791290       0.000000000 )
          (       0.000000000       0.000000000       6.600858760 )

          Effective charges (d Force / dE) in cartesian axis

           atom      1   V  
      Ex  (        6.31775        0.00000       -0.00000 )
      Ey  (        0.00000        3.16406       -0.06367 )
      Ez  (        0.00000       -0.48783        6.72022 )
           atom      2   V  
      Ex  (        6.31775        0.00000        0.00000 )
      Ey  (        0.00000        3.16406       -0.06367 )
      Ez  (        0.00000       -0.48783        6.72022 )
           atom      3   V  
      Ex  (        6.31775        0.00000        0.00000 )
      Ey  (        0.00000        3.16406        0.06367 )
      Ez  (        0.00000        0.48783        6.72022 )
           atom      4   V  
      Ex  (        6.31775        0.00000        0.00000 )
      Ey  (        0.00000        3.16406        0.06367 )
      Ez  (        0.00000        0.48783        6.72022 )
           atom      5   O  
      Ex  (       -5.24820        0.00000        0.00000 )
      Ey  (        0.00000       -0.77610       -0.30565 )
      Ez  (        0.00000       -0.81491       -2.68145 )
           atom      6   O  
      Ex  (       -5.24820        0.00000        0.00000 )
      Ey  (        0.00000       -0.77610       -0.30565 )
      Ez  (       -0.00000       -0.81491       -2.68145 )
           atom      7   O  
      Ex  (       -5.24820        0.00000       -0.00000 )
      Ey  (        0.00000       -0.77610        0.30565 )
      Ez  (       -0.00000        0.81491       -2.68145 )
           atom      8   O  
      Ex  (       -5.24820        0.00000        0.00000 )
      Ey  (        0.00000       -0.77610        0.30565 )
      Ez  (        0.00000        0.81491       -2.68145 )
           atom      9   O  
      Ex  (       -0.54498        0.00000       -0.00000 )
      Ey  (        0.00000       -2.08318       -0.09697 )
      Ez  (        0.00000       -0.23630       -0.51930 )
           atom     10   O  
      Ex  (       -0.54498       -0.00000        0.00000 )
      Ey  (        0.00000       -2.08318       -0.09697 )
      Ez  (        0.00000       -0.23630       -0.51930 )
           atom     11   O  
      Ex  (       -0.54498        0.00000        0.00000 )
      Ey  (        0.00000       -2.08318        0.09697 )
      Ez  (        0.00000        0.23630       -0.51930 )
           atom     12   O  
      Ex  (       -1.01823        0.00000        0.00000 )
      Ey  (       -0.00000       -0.66882       -0.00000 )
      Ez  (        0.00000        0.00000       -7.16212 )
           atom     13   O  
      Ex  (       -1.01823        0.00000       -0.00000 )
      Ey  (       -0.00000       -0.66882        0.00000 )
      Ez  (       -0.00000        0.00000       -7.16212 )
           atom     14   O  
      Ex  (       -0.54498       -0.00000        0.00000 )
      Ey  (        0.00000       -2.08318        0.09697 )
      Ez  (        0.00000        0.23630       -0.51930 )

     Calling punch_plot_e
     Writing on file  drho                                                                                                                                                                                                                                                            

     Computing Pc [DH,Drho] |psi> 

     Derivative coefficient:  0.001000    Threshold: 1.00E-12
     Non-scf  u_k: avg # of iterations = 28.8
     Non-scf Du_k: avg # of iterations = 55.9

          Dielectric constant from finite-differences

          (       5.829049070       0.000000000       0.000000000 )
          (       0.000000000       3.678301389       0.000000000 )
          (       0.000000000       0.000000000       6.601671566 )

     Computing Second order response 


      iter #   1   av.it.:  18.0
      thresh= 1.000E-02 alpha_mix =  0.500 |ddv_scf|^2 =  2.739E-03


      iter #   2   av.it.:  18.5
      thresh= 5.233E-03 alpha_mix =  0.500 |ddv_scf|^2 =  1.632E-02


      iter #   3   av.it.:  14.8
      thresh= 1.000E-02 alpha_mix =  0.500 |ddv_scf|^2 =  6.317E-04


      iter #   4   av.it.:  15.6
      thresh= 2.513E-03 alpha_mix =  0.500 |ddv_scf|^2 =  2.256E-06


      iter #   5   av.it.:  18.7
      thresh= 1.502E-04 alpha_mix =  0.500 |ddv_scf|^2 =  4.885E-07


      iter #   6   av.it.:  19.4
      thresh= 6.989E-05 alpha_mix =  0.500 |ddv_scf|^2 =  2.747E-07


      iter #   7   av.it.:  16.1
      thresh= 5.241E-05 alpha_mix =  0.500 |ddv_scf|^2 =  5.041E-08


      iter #   8   av.it.:  19.8
      thresh= 2.245E-05 alpha_mix =  0.500 |ddv_scf|^2 =  2.313E-08


      iter #   9   av.it.:  17.6
      thresh= 1.521E-05 alpha_mix =  0.500 |ddv_scf|^2 =  5.710E-09


      iter #  10   av.it.:  19.1
      thresh= 7.557E-06 alpha_mix =  0.500 |ddv_scf|^2 =  7.515E-09


      iter #  11   av.it.:  16.7
      thresh= 8.669E-06 alpha_mix =  0.500 |ddv_scf|^2 =  4.328E-10


      iter #  12   av.it.:  18.9
      thresh= 2.080E-06 alpha_mix =  0.500 |ddv_scf|^2 =  3.384E-10


      iter #  13   av.it.:  17.8
      thresh= 1.839E-06 alpha_mix =  0.500 |ddv_scf|^2 =  2.743E-10


      iter #  14   av.it.:  17.9
      thresh= 1.656E-06 alpha_mix =  0.500 |ddv_scf|^2 =  1.944E-11


      iter #  15   av.it.:  18.9
      thresh= 4.409E-07 alpha_mix =  0.500 |ddv_scf|^2 =  1.505E-11


      iter #  16   av.it.:  19.0
      thresh= 3.880E-07 alpha_mix =  0.500 |ddv_scf|^2 =  4.104E-12


      iter #  17   av.it.:  18.6
      thresh= 2.026E-07 alpha_mix =  0.500 |ddv_scf|^2 =  4.115E-12


      iter #  18   av.it.:  18.5
      thresh= 2.028E-07 alpha_mix =  0.500 |ddv_scf|^2 =  1.947E-12


      iter #  19   av.it.:  16.6
      thresh= 1.395E-07 alpha_mix =  0.500 |ddv_scf|^2 =  3.442E-13


      iter #  20   av.it.:  19.1
      thresh= 5.867E-08 alpha_mix =  0.500 |ddv_scf|^2 =  2.582E-13


      iter #  21   av.it.:  17.9
      thresh= 5.082E-08 alpha_mix =  0.500 |ddv_scf|^2 =  2.842E-14


      iter #  22   av.it.:  17.5
      thresh= 1.686E-08 alpha_mix =  0.500 |ddv_scf|^2 =  4.834E-15

          Raman tensor (au^-1) in cartesian axis 

           atom      1
          (       0.000000000       0.577201359       1.100995208 )
          (       0.577201359       0.000000000      -0.000000000 )
          (       1.100995208      -0.000000000      -0.000000000 )

          (       0.667391663       0.000000000      -0.000000000 )
          (       0.000000000       0.428615681      -0.050858285 )
          (      -0.000000000      -0.050858285       0.481106704 )

          (      -0.378212875       0.000000000       0.000000000 )
          (       0.000000000       0.062999771       0.067403603 )
          (       0.000000000       0.067403603       0.632824267 )

           atom      2
          (       0.000000000      -0.577201359      -1.100995208 )
          (      -0.577201359       0.000000000       0.000000000 )
          (      -1.100995208       0.000000000       0.000000000 )

          (      -0.667391663       0.000000000       0.000000000 )
          (       0.000000000      -0.428615681       0.050858285 )
          (       0.000000000       0.050858285      -0.481106704 )

          (       0.378212875       0.000000000      -0.000000000 )
          (       0.000000000      -0.062999771      -0.067403603 )
          (      -0.000000000      -0.067403603      -0.632824267 )

           atom      3
          (       0.000000000      -0.577201359       1.100995208 )
          (      -0.577201359       0.000000000      -0.000000000 )
          (       1.100995208      -0.000000000       0.000000000 )

          (      -0.667391663       0.000000000      -0.000000000 )
          (       0.000000000      -0.428615681      -0.050858285 )
          (      -0.000000000      -0.050858285      -0.481106704 )

          (      -0.378212875       0.000000000       0.000000000 )
          (       0.000000000       0.062999771      -0.067403603 )
          (       0.000000000      -0.067403603       0.632824267 )

           atom      4
          (       0.000000000       0.577201359      -1.100995208 )
          (       0.577201359       0.000000000       0.000000000 )
          (      -1.100995208       0.000000000      -0.000000000 )

          (       0.667391663       0.000000000       0.000000000 )
          (       0.000000000       0.428615681       0.050858285 )
          (       0.000000000       0.050858285       0.481106704 )

          (       0.378212875       0.000000000       0.000000000 )
          (       0.000000000      -0.062999771       0.067403603 )
          (       0.000000000       0.067403603      -0.632824267 )

           atom      5
          (       0.000000000      -0.365042701      -0.739900980 )
          (      -0.365042701      -0.000000000       0.000000000 )
          (      -0.739900980       0.000000000       0.000000000 )

          (      -0.151328162       0.000000000       0.000000000 )
          (       0.000000000       0.070985828       0.081449456 )
          (       0.000000000       0.081449456       0.214014470 )

          (      -0.365193061       0.000000000      -0.000000000 )
          (       0.000000000      -0.011189236       0.188045607 )
          (      -0.000000000       0.188045607      -0.109810004 )

           atom      6
          (       0.000000000       0.365042701       0.739900980 )
          (       0.365042701       0.000000000       0.000000000 )
          (       0.739900980       0.000000000       0.000000000 )

          (       0.151328162       0.000000000       0.000000000 )
          (       0.000000000      -0.070985828      -0.081449456 )
          (       0.000000000      -0.081449456      -0.214014470 )

          (       0.365193061      -0.000000000       0.000000000 )
          (      -0.000000000       0.011189236      -0.188045607 )
          (       0.000000000      -0.188045607       0.109810004 )

           atom      7
          (       0.000000000       0.365042701      -0.739900980 )
          (       0.365042701       0.000000000       0.000000000 )
          (      -0.739900980       0.000000000       0.000000000 )

          (       0.151328162      -0.000000000       0.000000000 )
          (      -0.000000000      -0.070985828       0.081449456 )
          (       0.000000000       0.081449456      -0.214014470 )

          (      -0.365193061       0.000000000       0.000000000 )
          (       0.000000000      -0.011189236      -0.188045607 )
          (       0.000000000      -0.188045607      -0.109810004 )

           atom      8
          (       0.000000000      -0.365042701       0.739900980 )
          (      -0.365042701       0.000000000       0.000000000 )
          (       0.739900980       0.000000000       0.000000000 )

          (      -0.151328162       0.000000000       0.000000000 )
          (       0.000000000       0.070985828      -0.081449456 )
          (       0.000000000      -0.081449456       0.214014470 )

          (       0.365193061      -0.000000000       0.000000000 )
          (      -0.000000000       0.011189236       0.188045607 )
          (       0.000000000       0.188045607       0.109810004 )

           atom      9
          (       0.000000000      -0.189894962      -0.013996027 )
          (      -0.189894962       0.000000000       0.000000000 )
          (      -0.013996027       0.000000000       0.000000000 )

          (      -0.650285135       0.000000000       0.000000000 )
          (       0.000000000      -0.735230994      -0.052234664 )
          (       0.000000000      -0.052234664      -0.588097397 )

          (      -0.016907910       0.000000000       0.000000000 )
          (       0.000000000      -0.044702880      -0.156901037 )
          (       0.000000000      -0.156901037       0.095524510 )

           atom     10
          (       0.000000000       0.189894962       0.013996027 )
          (       0.189894962      -0.000000000       0.000000000 )
          (       0.013996027       0.000000000       0.000000000 )

          (       0.650285135       0.000000000       0.000000000 )
          (       0.000000000       0.735230994       0.052234664 )
          (       0.000000000       0.052234664       0.588097397 )

          (       0.016907910      -0.000000000       0.000000000 )
          (      -0.000000000       0.044702880       0.156901037 )
          (       0.000000000       0.156901037      -0.095524510 )

           atom     11
          (       0.000000000       0.189894962      -0.013996027 )
          (       0.189894962      -0.000000000       0.000000000 )
          (      -0.013996027       0.000000000       0.000000000 )

          (       0.650285135      -0.000000000       0.000000000 )
          (      -0.000000000       0.735230994      -0.052234664 )
          (       0.000000000      -0.052234664       0.588097397 )

          (      -0.016907910       0.000000000       0.000000000 )
          (       0.000000000      -0.044702880       0.156901037 )
          (       0.000000000       0.156901037       0.095524510 )

           atom     12
          (       0.000000000      -0.029988905       0.000000000 )
          (      -0.029988905       0.000000000      -0.000000000 )
          (       0.000000000      -0.000000000      -0.000000000 )

          (      -0.064276185       0.000000000      -0.000000000 )
          (       0.000000000      -0.127183417       0.000000000 )
          (      -0.000000000       0.000000000      -0.153884688 )

          (       0.000000000       0.000000000       0.000000000 )
          (       0.000000000       0.000000000      -0.057556733 )
          (       0.000000000      -0.057556733       0.000000000 )

           atom     13
          (       0.000000000       0.029988905      -0.000000000 )
          (       0.029988905       0.000000000       0.000000000 )
          (      -0.000000000       0.000000000       0.000000000 )

          (       0.064276185       0.000000000       0.000000000 )
          (       0.000000000       0.127183417       0.000000000 )
          (       0.000000000       0.000000000       0.153884688 )

          (       0.000000000       0.000000000      -0.000000000 )
          (       0.000000000       0.000000000       0.057556733 )
          (      -0.000000000       0.057556733       0.000000000 )

           atom     14
          (       0.000000000      -0.189894962       0.013996027 )
          (      -0.189894962       0.000000000       0.000000000 )
          (       0.013996027       0.000000000       0.000000000 )

          (      -0.650285135       0.000000000       0.000000000 )
          (       0.000000000      -0.735230994       0.052234664 )
          (       0.000000000       0.052234664      -0.588097397 )

          (       0.016907910      -0.000000000       0.000000000 )
          (      -0.000000000       0.044702880      -0.156901037 )
          (       0.000000000      -0.156901037      -0.095524510 )


     Raman tensor (A^2)

     atom #    1    pol.  1
      0.000000000000E+00      0.158692300160E+02      0.302701057808E+02
      0.158692300160E+02      0.000000000000E+00     -0.461464611732E-16
      0.302701057808E+02     -0.461464611732E-16     -0.713277559716E-16
     atom #    1    pol.  2
      0.183488684362E+02      0.000000000000E+00     -0.922929223465E-16
      0.000000000000E+00      0.117841039667E+02     -0.139826736375E+01
     -0.922929223465E-16     -0.139826736375E+01      0.132272608609E+02
     atom #    1    pol.  3
     -0.103983592666E+02      0.000000000000E+00      0.000000000000E+00
      0.000000000000E+00      0.173207813270E+01      0.185315447181E+01
      0.000000000000E+00      0.185315447181E+01      0.173984930884E+02
     atom #    2    pol.  1
      0.000000000000E+00     -0.158692300160E+02     -0.302701057808E+02
     -0.158692300160E+02      0.000000000000E+00      0.461464611732E-16
     -0.302701057808E+02      0.461464611732E-16      0.713277559716E-16
     atom #    2    pol.  2
     -0.183488684362E+02      0.000000000000E+00      0.000000000000E+00
      0.000000000000E+00     -0.117841039667E+02      0.139826736375E+01
      0.000000000000E+00      0.139826736375E+01     -0.132272608609E+02
     atom #    2    pol.  3
      0.103983592666E+02      0.184585844693E-15     -0.142655511943E-15
      0.184585844693E-15     -0.173207813270E+01     -0.185315447181E+01
     -0.142655511943E-15     -0.185315447181E+01     -0.173984930884E+02
     atom #    3    pol.  1
      0.000000000000E+00     -0.158692300160E+02      0.302701057808E+02
     -0.158692300160E+02      0.000000000000E+00     -0.461464611732E-16
      0.302701057808E+02     -0.461464611732E-16      0.713277559716E-16
     atom #    3    pol.  2
     -0.183488684362E+02      0.000000000000E+00     -0.922929223465E-16
      0.000000000000E+00     -0.117841039667E+02     -0.139826736375E+01
     -0.922929223465E-16     -0.139826736375E+01     -0.132272608609E+02
     atom #    3    pol.  3
     -0.103983592666E+02      0.000000000000E+00      0.000000000000E+00
      0.000000000000E+00      0.173207813270E+01     -0.185315447181E+01
      0.000000000000E+00     -0.185315447181E+01      0.173984930884E+02
     atom #    4    pol.  1
      0.000000000000E+00      0.158692300160E+02     -0.302701057808E+02
      0.158692300160E+02      0.000000000000E+00      0.461464611732E-16
     -0.302701057808E+02      0.461464611732E-16     -0.713277559716E-16
     atom #    4    pol.  2
      0.183488684362E+02      0.000000000000E+00      0.000000000000E+00
      0.000000000000E+00      0.117841039667E+02      0.139826736375E+01
      0.000000000000E+00      0.139826736375E+01      0.132272608609E+02
     atom #    4    pol.  3
      0.103983592666E+02      0.184585844693E-15      0.142655511943E-15
      0.184585844693E-15     -0.173207813270E+01      0.185315447181E+01
      0.142655511943E-15      0.185315447181E+01     -0.173984930884E+02
     atom #    5    pol.  1
      0.000000000000E+00     -0.100362663709E+02     -0.203423963691E+02
     -0.100362663709E+02     -0.597101605064E-16      0.000000000000E+00
     -0.203423963691E+02      0.000000000000E+00      0.000000000000E+00
     atom #    5    pol.  2
     -0.416052625758E+01      0.597101605064E-16      0.000000000000E+00
      0.597101605064E-16      0.195164203940E+01      0.223932277145E+01
      0.000000000000E+00      0.223932277145E+01      0.588398624521E+01
     atom #    5    pol.  3
     -0.100404002691E+02      0.000000000000E+00     -0.713277559716E-16
      0.000000000000E+00     -0.307630175551E+00      0.517001378301E+01
     -0.713277559716E-16      0.517001378301E+01     -0.301905078076E+01
     atom #    6    pol.  1
      0.000000000000E+00      0.100362663709E+02      0.203423963691E+02
      0.100362663709E+02      0.000000000000E+00      0.000000000000E+00
      0.203423963691E+02      0.000000000000E+00      0.000000000000E+00
     atom #    6    pol.  2
      0.416052625758E+01      0.000000000000E+00      0.000000000000E+00
      0.000000000000E+00     -0.195164203940E+01     -0.223932277145E+01
      0.000000000000E+00     -0.223932277145E+01     -0.588398624521E+01
     atom #    6    pol.  3
      0.100404002691E+02     -0.115366152933E-16      0.000000000000E+00
     -0.115366152933E-16      0.307630175551E+00     -0.517001378301E+01
      0.000000000000E+00     -0.517001378301E+01      0.301905078076E+01
     atom #    7    pol.  1
      0.000000000000E+00      0.100362663709E+02     -0.203423963691E+02
      0.100362663709E+02      0.597101605064E-16      0.000000000000E+00
     -0.203423963691E+02      0.000000000000E+00      0.000000000000E+00
     atom #    7    pol.  2
      0.416052625758E+01     -0.597101605064E-16      0.000000000000E+00
     -0.597101605064E-16     -0.195164203940E+01      0.223932277145E+01
      0.000000000000E+00      0.223932277145E+01     -0.588398624521E+01
     atom #    7    pol.  3
     -0.100404002691E+02      0.000000000000E+00      0.713277559716E-16
      0.000000000000E+00     -0.307630175551E+00     -0.517001378301E+01
      0.713277559716E-16     -0.517001378301E+01     -0.301905078076E+01
     atom #    8    pol.  1
      0.000000000000E+00     -0.100362663709E+02      0.203423963691E+02
     -0.100362663709E+02      0.000000000000E+00      0.000000000000E+00
      0.203423963691E+02      0.000000000000E+00      0.000000000000E+00
     atom #    8    pol.  2
     -0.416052625758E+01      0.000000000000E+00      0.000000000000E+00
      0.000000000000E+00      0.195164203940E+01     -0.223932277145E+01
      0.000000000000E+00     -0.223932277145E+01      0.588398624521E+01
     atom #    8    pol.  3
      0.100404002691E+02     -0.115366152933E-16      0.000000000000E+00
     -0.115366152933E-16      0.307630175551E+00      0.517001378301E+01
      0.000000000000E+00      0.517001378301E+01      0.301905078076E+01
     atom #    9    pol.  1
      0.000000000000E+00     -0.522085887236E+01     -0.384798416362E+00
     -0.522085887236E+01      0.119420321013E-15      0.230732305866E-16
     -0.384798416362E+00      0.230732305866E-16      0.000000000000E+00
     atom #    9    pol.  2
     -0.178785517728E+02      0.119420321013E-15      0.000000000000E+00
      0.119420321013E-15     -0.202140025607E+02     -0.143610870485E+01
      0.000000000000E+00     -0.143610870485E+01     -0.161687991783E+02
     atom #    9    pol.  3
     -0.464855998050E+00      0.000000000000E+00      0.000000000000E+00
      0.000000000000E+00     -0.122903431910E+01     -0.431374356882E+01
      0.000000000000E+00     -0.431374356882E+01      0.262629391227E+01
     atom #   10    pol.  1
      0.000000000000E+00      0.522085887236E+01      0.384798416362E+00
      0.522085887236E+01     -0.119420321013E-15      0.000000000000E+00
      0.384798416362E+00      0.000000000000E+00      0.000000000000E+00
     atom #   10    pol.  2
      0.178785517728E+02      0.000000000000E+00      0.000000000000E+00
      0.000000000000E+00      0.202140025607E+02      0.143610870485E+01
      0.000000000000E+00      0.143610870485E+01      0.161687991783E+02
     atom #   10    pol.  3
      0.464855998050E+00     -0.922929223465E-16      0.000000000000E+00
     -0.922929223465E-16      0.122903431910E+01      0.431374356882E+01
      0.000000000000E+00      0.431374356882E+01     -0.262629391227E+01
     atom #   11    pol.  1
      0.000000000000E+00      0.522085887236E+01     -0.384798416362E+00
      0.522085887236E+01     -0.119420321013E-15      0.230732305866E-16
     -0.384798416362E+00      0.230732305866E-16      0.000000000000E+00
     atom #   11    pol.  2
      0.178785517728E+02     -0.119420321013E-15      0.000000000000E+00
     -0.119420321013E-15      0.202140025607E+02     -0.143610870485E+01
      0.000000000000E+00     -0.143610870485E+01      0.161687991783E+02
     atom #   11    pol.  3
     -0.464855998050E+00      0.000000000000E+00      0.000000000000E+00
      0.000000000000E+00     -0.122903431910E+01      0.431374356882E+01
      0.000000000000E+00      0.431374356882E+01      0.262629391227E+01
     atom #   12    pol.  1
      0.000000000000E+00     -0.824497083482E+00      0.444988448315E-21
     -0.824497083482E+00      0.000000000000E+00     -0.440086948140E-22
      0.444988448315E-21     -0.440086948140E-22     -0.713277559716E-16
     atom #   12    pol.  2
     -0.176717110726E+01      0.000000000000E+00     -0.176034779256E-21
      0.000000000000E+00     -0.349670502825E+01      0.000000000000E+00
     -0.176034779256E-21      0.000000000000E+00     -0.423081386563E+01
     atom #   12    pol.  3
      0.000000000000E+00      0.000000000000E+00      0.142655511943E-15
      0.000000000000E+00      0.222842591982E-20     -0.158243050929E+01
      0.142655511943E-15     -0.158243050929E+01      0.000000000000E+00
     atom #   13    pol.  1
      0.000000000000E+00      0.824497083482E+00     -0.111247112079E-21
      0.824497083482E+00      0.000000000000E+00      0.000000000000E+00
     -0.111247112079E-21      0.000000000000E+00      0.713277559716E-16
     atom #   13    pol.  2
      0.176717110726E+01      0.000000000000E+00      0.330065211105E-22
      0.000000000000E+00      0.349670502825E+01      0.000000000000E+00
      0.330065211105E-22      0.000000000000E+00      0.423081386563E+01
     atom #   13    pol.  3
      0.000000000000E+00      0.000000000000E+00     -0.142655511943E-15
      0.000000000000E+00      0.334263887973E-20      0.158243050929E+01
     -0.142655511943E-15      0.158243050929E+01      0.000000000000E+00
     atom #   14    pol.  1
      0.000000000000E+00     -0.522085887236E+01      0.384798416362E+00
     -0.522085887236E+01      0.119420321013E-15      0.000000000000E+00
      0.384798416362E+00      0.000000000000E+00      0.000000000000E+00
     atom #   14    pol.  2
     -0.178785517728E+02      0.000000000000E+00      0.000000000000E+00
      0.000000000000E+00     -0.202140025607E+02      0.143610870485E+01
      0.000000000000E+00      0.143610870485E+01     -0.161687991783E+02
     atom #   14    pol.  3
      0.464855998050E+00     -0.922929223465E-16      0.000000000000E+00
     -0.922929223465E-16      0.122903431910E+01     -0.431374356882E+01
      0.000000000000E+00     -0.431374356882E+01     -0.262629391227E+01


     Representation #   1 mode #   1

     Self-consistent Calculation

      iter #   1 total cpu time :  1355.9 secs   av.it.:   8.5
      thresh= 1.000E-02 alpha_mix =  0.500 |ddv_scf|^2 =  6.747E-08

      iter #   2 total cpu time :  1362.2 secs   av.it.:  20.0
      thresh= 2.598E-05 alpha_mix =  0.500 |ddv_scf|^2 =  2.945E-08

      iter #   3 total cpu time :  1368.8 secs   av.it.:  21.0
      thresh= 1.716E-05 alpha_mix =  0.500 |ddv_scf|^2 =  8.700E-08

      iter #   4 total cpu time :  1374.8 secs   av.it.:  18.5
      thresh= 2.950E-05 alpha_mix =  0.500 |ddv_scf|^2 =  2.535E-09

      iter #   5 total cpu time :  1381.1 secs   av.it.:  19.8
      thresh= 5.035E-06 alpha_mix =  0.500 |ddv_scf|^2 =  5.781E-11

      iter #   6 total cpu time :  1387.4 secs   av.it.:  19.8
      thresh= 7.603E-07 alpha_mix =  0.500 |ddv_scf|^2 =  2.405E-11

      iter #   7 total cpu time :  1393.6 secs   av.it.:  19.2
      thresh= 4.904E-07 alpha_mix =  0.500 |ddv_scf|^2 =  2.530E-12

      iter #   8 total cpu time :  1400.0 secs   av.it.:  20.0
      thresh= 1.591E-07 alpha_mix =  0.500 |ddv_scf|^2 =  1.125E-13

      iter #   9 total cpu time :  1406.6 secs   av.it.:  21.0
      thresh= 3.354E-08 alpha_mix =  0.500 |ddv_scf|^2 =  2.079E-13

      iter #  10 total cpu time :  1412.6 secs   av.it.:  18.5
      thresh= 4.560E-08 alpha_mix =  0.500 |ddv_scf|^2 =  1.490E-14

      iter #  11 total cpu time :  1418.9 secs   av.it.:  19.5
      thresh= 1.221E-08 alpha_mix =  0.500 |ddv_scf|^2 =  4.922E-15

     End of self-consistent calculation

     Convergence has been achieved 


     Representation #   2 mode #   2

     Self-consistent Calculation

      iter #   1 total cpu time :  1422.9 secs   av.it.:   9.5
      thresh= 1.000E-02 alpha_mix =  0.500 |ddv_scf|^2 =  3.228E-07

      iter #   2 total cpu time :  1429.5 secs   av.it.:  21.0
      thresh= 5.682E-05 alpha_mix =  0.500 |ddv_scf|^2 =  1.458E-06

      iter #   3 total cpu time :  1435.5 secs   av.it.:  18.8
      thresh= 1.207E-04 alpha_mix =  0.500 |ddv_scf|^2 =  7.460E-08

      iter #   4 total cpu time :  1441.5 secs   av.it.:  18.5
      thresh= 2.731E-05 alpha_mix =  0.500 |ddv_scf|^2 =  8.835E-09

      iter #   5 total cpu time :  1447.7 secs   av.it.:  19.0
      thresh= 9.399E-06 alpha_mix =  0.500 |ddv_scf|^2 =  2.330E-10

      iter #   6 total cpu time :  1454.0 secs   av.it.:  19.8
      thresh= 1.526E-06 alpha_mix =  0.500 |ddv_scf|^2 =  4.980E-11

      iter #   7 total cpu time :  1460.3 secs   av.it.:  19.8
      thresh= 7.057E-07 alpha_mix =  0.500 |ddv_scf|^2 =  2.160E-12

      iter #   8 total cpu time :  1466.5 secs   av.it.:  19.5
      thresh= 1.470E-07 alpha_mix =  0.500 |ddv_scf|^2 =  6.821E-13

      iter #   9 total cpu time :  1473.1 secs   av.it.:  20.5
      thresh= 8.259E-08 alpha_mix =  0.500 |ddv_scf|^2 =  1.503E-12

      iter #  10 total cpu time :  1479.1 secs   av.it.:  18.5
      thresh= 1.226E-07 alpha_mix =  0.500 |ddv_scf|^2 =  1.760E-14

      iter #  11 total cpu time :  1485.2 secs   av.it.:  19.0
      thresh= 1.326E-08 alpha_mix =  0.500 |ddv_scf|^2 =  2.833E-15

     End of self-consistent calculation

     Convergence has been achieved 


     Representation #   3 mode #   3

     Self-consistent Calculation

      iter #   1 total cpu time :  1489.2 secs   av.it.:   9.5
      thresh= 1.000E-02 alpha_mix =  0.500 |ddv_scf|^2 =  3.976E-07

      iter #   2 total cpu time :  1495.7 secs   av.it.:  20.5
      thresh= 6.306E-05 alpha_mix =  0.500 |ddv_scf|^2 =  4.123E-07

      iter #   3 total cpu time :  1502.0 secs   av.it.:  19.8
      thresh= 6.421E-05 alpha_mix =  0.500 |ddv_scf|^2 =  2.154E-07

      iter #   4 total cpu time :  1508.0 secs   av.it.:  18.5
      thresh= 4.642E-05 alpha_mix =  0.500 |ddv_scf|^2 =  2.439E-08

      iter #   5 total cpu time :  1514.1 secs   av.it.:  19.0
      thresh= 1.562E-05 alpha_mix =  0.500 |ddv_scf|^2 =  7.181E-10

      iter #   6 total cpu time :  1520.3 secs   av.it.:  19.5
      thresh= 2.680E-06 alpha_mix =  0.500 |ddv_scf|^2 =  1.179E-10

      iter #   7 total cpu time :  1526.6 secs   av.it.:  19.8
      thresh= 1.086E-06 alpha_mix =  0.500 |ddv_scf|^2 =  2.501E-12

      iter #   8 total cpu time :  1533.0 secs   av.it.:  20.5
      thresh= 1.581E-07 alpha_mix =  0.500 |ddv_scf|^2 =  1.088E-12

      iter #   9 total cpu time :  1539.4 secs   av.it.:  19.8
      thresh= 1.043E-07 alpha_mix =  0.500 |ddv_scf|^2 =  4.048E-13

      iter #  10 total cpu time :  1545.4 secs   av.it.:  18.5
      thresh= 6.363E-08 alpha_mix =  0.500 |ddv_scf|^2 =  4.210E-14

      iter #  11 total cpu time :  1551.5 secs   av.it.:  19.0
      thresh= 2.052E-08 alpha_mix =  0.500 |ddv_scf|^2 =  3.386E-15

     End of self-consistent calculation

     Convergence has been achieved 


     Representation #   4 mode #   4

     Self-consistent Calculation

      iter #   1 total cpu time :  1556.1 secs   av.it.:  11.8
      thresh= 1.000E-02 alpha_mix =  0.500 |ddv_scf|^2 =  3.407E-06

      iter #   2 total cpu time :  1562.5 secs   av.it.:  20.5
      thresh= 1.846E-04 alpha_mix =  0.500 |ddv_scf|^2 =  5.361E-06

      iter #   3 total cpu time :  1568.6 secs   av.it.:  19.0
      thresh= 2.315E-04 alpha_mix =  0.500 |ddv_scf|^2 =  3.945E-07

      iter #   4 total cpu time :  1574.7 secs   av.it.:  19.0
      thresh= 6.281E-05 alpha_mix =  0.500 |ddv_scf|^2 =  1.105E-07

      iter #   5 total cpu time :  1580.8 secs   av.it.:  18.8
      thresh= 3.324E-05 alpha_mix =  0.500 |ddv_scf|^2 =  1.794E-09

      iter #   6 total cpu time :  1587.1 secs   av.it.:  19.8
      thresh= 4.235E-06 alpha_mix =  0.500 |ddv_scf|^2 =  4.420E-10

      iter #   7 total cpu time :  1593.5 secs   av.it.:  20.0
      thresh= 2.102E-06 alpha_mix =  0.500 |ddv_scf|^2 =  1.726E-11

      iter #   8 total cpu time :  1600.0 secs   av.it.:  20.5
      thresh= 4.155E-07 alpha_mix =  0.500 |ddv_scf|^2 =  4.218E-13

      iter #   9 total cpu time :  1606.3 secs   av.it.:  20.0
      thresh= 6.495E-08 alpha_mix =  0.500 |ddv_scf|^2 =  3.532E-14

      iter #  10 total cpu time :  1612.9 secs   av.it.:  20.8
      thresh= 1.879E-08 alpha_mix =  0.500 |ddv_scf|^2 =  4.233E-14

      iter #  11 total cpu time :  1618.9 secs   av.it.:  18.8
      thresh= 2.058E-08 alpha_mix =  0.500 |ddv_scf|^2 =  2.786E-15

     End of self-consistent calculation

     Convergence has been achieved 


     Representation #   5 mode #   5

     Self-consistent Calculation

      iter #   1 total cpu time :  1622.9 secs   av.it.:   9.5
      thresh= 1.000E-02 alpha_mix =  0.500 |ddv_scf|^2 =  4.247E-07

      iter #   2 total cpu time :  1629.3 secs   av.it.:  20.2
      thresh= 6.517E-05 alpha_mix =  0.500 |ddv_scf|^2 =  4.463E-07

      iter #   3 total cpu time :  1635.5 secs   av.it.:  19.5
      thresh= 6.681E-05 alpha_mix =  0.500 |ddv_scf|^2 =  1.104E-07

      iter #   4 total cpu time :  1641.6 secs   av.it.:  19.0
      thresh= 3.322E-05 alpha_mix =  0.500 |ddv_scf|^2 =  2.791E-08

      iter #   5 total cpu time :  1647.7 secs   av.it.:  19.0
      thresh= 1.671E-05 alpha_mix =  0.500 |ddv_scf|^2 =  8.144E-10

      iter #   6 total cpu time :  1653.9 secs   av.it.:  19.2
      thresh= 2.854E-06 alpha_mix =  0.500 |ddv_scf|^2 =  1.393E-10

      iter #   7 total cpu time :  1660.2 secs   av.it.:  19.5
      thresh= 1.180E-06 alpha_mix =  0.500 |ddv_scf|^2 =  2.400E-12

      iter #   8 total cpu time :  1666.7 secs   av.it.:  20.5
      thresh= 1.549E-07 alpha_mix =  0.500 |ddv_scf|^2 =  8.791E-13

      iter #   9 total cpu time :  1673.0 secs   av.it.:  19.5
      thresh= 9.376E-08 alpha_mix =  0.500 |ddv_scf|^2 =  4.625E-14

      iter #  10 total cpu time :  1679.4 secs   av.it.:  20.0
      thresh= 2.151E-08 alpha_mix =  0.500 |ddv_scf|^2 =  4.702E-14

      iter #  11 total cpu time :  1685.5 secs   av.it.:  18.8
      thresh= 2.168E-08 alpha_mix =  0.500 |ddv_scf|^2 =  6.472E-15

     End of self-consistent calculation

     Convergence has been achieved 


     Representation #   6 mode #   6

     Self-consistent Calculation

      iter #   1 total cpu time :  1690.0 secs   av.it.:  11.2
      thresh= 1.000E-02 alpha_mix =  0.500 |ddv_scf|^2 =  1.303E-06

      iter #   2 total cpu time :  1696.5 secs   av.it.:  20.5
      thresh= 1.142E-04 alpha_mix =  0.500 |ddv_scf|^2 =  3.716E-06

      iter #   3 total cpu time :  1702.5 secs   av.it.:  18.8
      thresh= 1.928E-04 alpha_mix =  0.500 |ddv_scf|^2 =  3.876E-07

      iter #   4 total cpu time :  1708.7 secs   av.it.:  19.5
      thresh= 6.226E-05 alpha_mix =  0.500 |ddv_scf|^2 =  5.971E-08

      iter #   5 total cpu time :  1715.0 secs   av.it.:  19.5
      thresh= 2.444E-05 alpha_mix =  0.500 |ddv_scf|^2 =  1.617E-09

      iter #   6 total cpu time :  1721.2 secs   av.it.:  19.5
      thresh= 4.022E-06 alpha_mix =  0.500 |ddv_scf|^2 =  3.150E-10

      iter #   7 total cpu time :  1727.6 secs   av.it.:  19.8
      thresh= 1.775E-06 alpha_mix =  0.500 |ddv_scf|^2 =  1.210E-11

      iter #   8 total cpu time :  1733.6 secs   av.it.:  19.2
      thresh= 3.478E-07 alpha_mix =  0.500 |ddv_scf|^2 =  6.246E-13

      iter #   9 total cpu time :  1739.9 secs   av.it.:  19.0
      thresh= 7.903E-08 alpha_mix =  0.500 |ddv_scf|^2 =  4.393E-14

      iter #  10 total cpu time :  1746.3 secs   av.it.:  20.2
      thresh= 2.096E-08 alpha_mix =  0.500 |ddv_scf|^2 =  7.869E-15

     End of self-consistent calculation

     Convergence has been achieved 


     Representation #   7 mode #   7

     Self-consistent Calculation

      iter #   1 total cpu time :  1750.0 secs   av.it.:   8.5
      thresh= 1.000E-02 alpha_mix =  0.500 |ddv_scf|^2 =  1.089E-07

      iter #   2 total cpu time :  1756.5 secs   av.it.:  20.5
      thresh= 3.300E-05 alpha_mix =  0.500 |ddv_scf|^2 =  8.337E-08

      iter #   3 total cpu time :  1763.0 secs   av.it.:  20.5
      thresh= 2.887E-05 alpha_mix =  0.500 |ddv_scf|^2 =  1.306E-07

      iter #   4 total cpu time :  1768.9 secs   av.it.:  18.5
      thresh= 3.614E-05 alpha_mix =  0.500 |ddv_scf|^2 =  4.476E-09

      iter #   5 total cpu time :  1775.3 secs   av.it.:  19.8
      thresh= 6.690E-06 alpha_mix =  0.500 |ddv_scf|^2 =  1.159E-10

      iter #   6 total cpu time :  1781.7 secs   av.it.:  19.8
      thresh= 1.077E-06 alpha_mix =  0.500 |ddv_scf|^2 =  4.811E-11

      iter #   7 total cpu time :  1787.9 secs   av.it.:  19.5
      thresh= 6.936E-07 alpha_mix =  0.500 |ddv_scf|^2 =  3.705E-12

      iter #   8 total cpu time :  1794.1 secs   av.it.:  19.5
      thresh= 1.925E-07 alpha_mix =  0.500 |ddv_scf|^2 =  2.551E-13

      iter #   9 total cpu time :  1800.6 secs   av.it.:  19.8
      thresh= 5.050E-08 alpha_mix =  0.500 |ddv_scf|^2 =  3.995E-14

      iter #  10 total cpu time :  1807.2 secs   av.it.:  20.5
      thresh= 1.999E-08 alpha_mix =  0.500 |ddv_scf|^2 =  3.592E-14

      iter #  11 total cpu time :  1813.6 secs   av.it.:  19.5
      thresh= 1.895E-08 alpha_mix =  0.500 |ddv_scf|^2 =  9.692E-16

     End of self-consistent calculation

     Convergence has been achieved 


     Representation #   8 mode #   8

     Self-consistent Calculation

      iter #   1 total cpu time :  1817.5 secs   av.it.:   9.0
      thresh= 1.000E-02 alpha_mix =  0.500 |ddv_scf|^2 =  1.147E-07

      iter #   2 total cpu time :  1823.6 secs   av.it.:  19.0
      thresh= 3.386E-05 alpha_mix =  0.500 |ddv_scf|^2 =  1.174E-09

      iter #   3 total cpu time :  1829.9 secs   av.it.:  20.0
      thresh= 3.427E-06 alpha_mix =  0.500 |ddv_scf|^2 =  7.061E-11

      iter #   4 total cpu time :  1836.3 secs   av.it.:  19.8
      thresh= 8.403E-07 alpha_mix =  0.500 |ddv_scf|^2 =  3.885E-12

      iter #   5 total cpu time :  1843.1 secs   av.it.:  20.2
      thresh= 1.971E-07 alpha_mix =  0.500 |ddv_scf|^2 =  2.519E-14

      iter #   6 total cpu time :  1849.6 secs   av.it.:  20.5
      thresh= 1.587E-08 alpha_mix =  0.500 |ddv_scf|^2 =  8.679E-16

     End of self-consistent calculation

     Convergence has been achieved 


     Representation #   9 mode #   9

     Self-consistent Calculation

      iter #   1 total cpu time :  1853.2 secs   av.it.:   8.0
      thresh= 1.000E-02 alpha_mix =  0.500 |ddv_scf|^2 =  6.000E-08

      iter #   2 total cpu time :  1859.2 secs   av.it.:  18.5
      thresh= 2.450E-05 alpha_mix =  0.500 |ddv_scf|^2 =  2.199E-09

      iter #   3 total cpu time :  1865.4 secs   av.it.:  19.2
      thresh= 4.689E-06 alpha_mix =  0.500 |ddv_scf|^2 =  3.173E-11

      iter #   4 total cpu time :  1871.4 secs   av.it.:  18.8
      thresh= 5.633E-07 alpha_mix =  0.500 |ddv_scf|^2 =  3.686E-12

      iter #   5 total cpu time :  1878.0 secs   av.it.:  19.5
      thresh= 1.920E-07 alpha_mix =  0.500 |ddv_scf|^2 =  4.176E-14

      iter #   6 total cpu time :  1884.3 secs   av.it.:  20.0
      thresh= 2.043E-08 alpha_mix =  0.500 |ddv_scf|^2 =  8.924E-16

     End of self-consistent calculation

     Convergence has been achieved 


     Representation #  10 mode #  10

     Self-consistent Calculation

      iter #   1 total cpu time :  1888.6 secs   av.it.:  10.5
      thresh= 1.000E-02 alpha_mix =  0.500 |ddv_scf|^2 =  4.285E-07

      iter #   2 total cpu time :  1894.9 secs   av.it.:  19.2
      thresh= 6.546E-05 alpha_mix =  0.500 |ddv_scf|^2 =  1.949E-09

      iter #   3 total cpu time :  1901.2 secs   av.it.:  19.8
      thresh= 4.415E-06 alpha_mix =  0.500 |ddv_scf|^2 =  2.301E-10

      iter #   4 total cpu time :  1907.9 secs   av.it.:  19.8
      thresh= 1.517E-06 alpha_mix =  0.500 |ddv_scf|^2 =  4.470E-12

      iter #   5 total cpu time :  1914.7 secs   av.it.:  20.5
      thresh= 2.114E-07 alpha_mix =  0.500 |ddv_scf|^2 =  1.626E-13

      iter #   6 total cpu time :  1921.3 secs   av.it.:  20.5
      thresh= 4.032E-08 alpha_mix =  0.500 |ddv_scf|^2 =  2.519E-15

     End of self-consistent calculation

     Convergence has been achieved 


     Representation #  11 mode #  11

     Self-consistent Calculation

      iter #   1 total cpu time :  1925.1 secs   av.it.:   8.5
      thresh= 1.000E-02 alpha_mix =  0.500 |ddv_scf|^2 =  6.650E-08

      iter #   2 total cpu time :  1931.2 secs   av.it.:  18.8
      thresh= 2.579E-05 alpha_mix =  0.500 |ddv_scf|^2 =  2.246E-09

      iter #   3 total cpu time :  1937.5 secs   av.it.:  19.5
      thresh= 4.740E-06 alpha_mix =  0.500 |ddv_scf|^2 =  4.021E-11

      iter #   4 total cpu time :  1943.5 secs   av.it.:  19.0
      thresh= 6.341E-07 alpha_mix =  0.500 |ddv_scf|^2 =  3.842E-12

      iter #   5 total cpu time :  1950.3 secs   av.it.:  20.0
      thresh= 1.960E-07 alpha_mix =  0.500 |ddv_scf|^2 =  4.833E-14

      iter #   6 total cpu time :  1956.6 secs   av.it.:  20.0
      thresh= 2.198E-08 alpha_mix =  0.500 |ddv_scf|^2 =  7.986E-16

     End of self-consistent calculation

     Convergence has been achieved 


     Representation #  12 mode #  12

     Self-consistent Calculation

      iter #   1 total cpu time :  1960.5 secs   av.it.:   8.8
      thresh= 1.000E-02 alpha_mix =  0.500 |ddv_scf|^2 =  1.966E-07

      iter #   2 total cpu time :  1966.8 secs   av.it.:  19.5
      thresh= 4.433E-05 alpha_mix =  0.500 |ddv_scf|^2 =  4.570E-07

      iter #   3 total cpu time :  1972.3 secs   av.it.:  16.8
      thresh= 6.760E-05 alpha_mix =  0.500 |ddv_scf|^2 =  1.327E-08

      iter #   4 total cpu time :  1978.6 secs   av.it.:  19.5
      thresh= 1.152E-05 alpha_mix =  0.500 |ddv_scf|^2 =  1.209E-08

      iter #   5 total cpu time :  1985.0 secs   av.it.:  18.8
      thresh= 1.100E-05 alpha_mix =  0.500 |ddv_scf|^2 =  3.501E-10

      iter #   6 total cpu time :  1991.2 secs   av.it.:  19.2
      thresh= 1.871E-06 alpha_mix =  0.500 |ddv_scf|^2 =  6.708E-11

      iter #   7 total cpu time :  1997.5 secs   av.it.:  19.5
      thresh= 8.190E-07 alpha_mix =  0.500 |ddv_scf|^2 =  1.686E-12

      iter #   8 total cpu time :  2003.8 secs   av.it.:  20.0
      thresh= 1.299E-07 alpha_mix =  0.500 |ddv_scf|^2 =  2.793E-13

      iter #   9 total cpu time :  2010.2 secs   av.it.:  20.2
      thresh= 5.285E-08 alpha_mix =  0.500 |ddv_scf|^2 =  9.789E-15

     End of self-consistent calculation

     Convergence has been achieved 


     Representation #  13 mode #  13

     Self-consistent Calculation

      iter #   1 total cpu time :  2014.3 secs   av.it.:   9.5
      thresh= 1.000E-02 alpha_mix =  0.500 |ddv_scf|^2 =  2.483E-06

      iter #   2 total cpu time :  2020.3 secs   av.it.:  18.5
      thresh= 1.576E-04 alpha_mix =  0.500 |ddv_scf|^2 =  7.397E-06

      iter #   3 total cpu time :  2025.9 secs   av.it.:  16.2
      thresh= 2.720E-04 alpha_mix =  0.500 |ddv_scf|^2 =  6.599E-08

      iter #   4 total cpu time :  2032.0 secs   av.it.:  19.0
      thresh= 2.569E-05 alpha_mix =  0.500 |ddv_scf|^2 =  5.796E-08

      iter #   5 total cpu time :  2038.0 secs   av.it.:  18.5
      thresh= 2.407E-05 alpha_mix =  0.500 |ddv_scf|^2 =  1.058E-09

      iter #   6 total cpu time :  2043.7 secs   av.it.:  17.5
      thresh= 3.253E-06 alpha_mix =  0.500 |ddv_scf|^2 =  1.426E-11

      iter #   7 total cpu time :  2050.0 secs   av.it.:  19.5
      thresh= 3.777E-07 alpha_mix =  0.500 |ddv_scf|^2 =  3.772E-12

      iter #   8 total cpu time :  2056.5 secs   av.it.:  19.8
      thresh= 1.942E-07 alpha_mix =  0.500 |ddv_scf|^2 =  4.805E-13

      iter #   9 total cpu time :  2063.0 secs   av.it.:  20.2
      thresh= 6.932E-08 alpha_mix =  0.500 |ddv_scf|^2 =  4.025E-14

      iter #  10 total cpu time :  2068.9 secs   av.it.:  18.0
      thresh= 2.006E-08 alpha_mix =  0.500 |ddv_scf|^2 =  7.561E-15

     End of self-consistent calculation

     Convergence has been achieved 


     Representation #  14 mode #  14

     Self-consistent Calculation

      iter #   1 total cpu time :  2073.5 secs   av.it.:  11.5
      thresh= 1.000E-02 alpha_mix =  0.500 |ddv_scf|^2 =  1.147E-05

      iter #   2 total cpu time :  2079.6 secs   av.it.:  19.0
      thresh= 3.387E-04 alpha_mix =  0.500 |ddv_scf|^2 =  4.445E-05

      iter #   3 total cpu time :  2085.0 secs   av.it.:  16.2
      thresh= 6.667E-04 alpha_mix =  0.500 |ddv_scf|^2 =  4.426E-07

      iter #   4 total cpu time :  2091.3 secs   av.it.:  19.5
      thresh= 6.653E-05 alpha_mix =  0.500 |ddv_scf|^2 =  2.689E-07

      iter #   5 total cpu time :  2097.6 secs   av.it.:  18.5
      thresh= 5.186E-05 alpha_mix =  0.500 |ddv_scf|^2 =  9.164E-10

      iter #   6 total cpu time :  2104.0 secs   av.it.:  20.0
      thresh= 3.027E-06 alpha_mix =  0.500 |ddv_scf|^2 =  2.918E-10

      iter #   7 total cpu time :  2110.5 secs   av.it.:  20.5
      thresh= 1.708E-06 alpha_mix =  0.500 |ddv_scf|^2 =  2.681E-11

      iter #   8 total cpu time :  2116.8 secs   av.it.:  19.8
      thresh= 5.177E-07 alpha_mix =  0.500 |ddv_scf|^2 =  1.867E-12

      iter #   9 total cpu time :  2122.9 secs   av.it.:  19.2
      thresh= 1.366E-07 alpha_mix =  0.500 |ddv_scf|^2 =  3.031E-14

      iter #  10 total cpu time :  2129.8 secs   av.it.:  21.2
      thresh= 1.741E-08 alpha_mix =  0.500 |ddv_scf|^2 =  1.445E-13

      iter #  11 total cpu time :  2135.9 secs   av.it.:  18.5
      thresh= 3.801E-08 alpha_mix =  0.500 |ddv_scf|^2 =  1.012E-14

      iter #  12 total cpu time :  2142.4 secs   av.it.:  20.0
      thresh= 1.006E-08 alpha_mix =  0.500 |ddv_scf|^2 =  2.213E-16

     End of self-consistent calculation

     Convergence has been achieved 


     Representation #  15 mode #  15

     Self-consistent Calculation

      iter #   1 total cpu time :  2146.4 secs   av.it.:   9.8
      thresh= 1.000E-02 alpha_mix =  0.500 |ddv_scf|^2 =  8.658E-07

      iter #   2 total cpu time :  2152.9 secs   av.it.:  20.2
      thresh= 9.305E-05 alpha_mix =  0.500 |ddv_scf|^2 =  7.659E-06

      iter #   3 total cpu time :  2158.5 secs   av.it.:  17.2
      thresh= 2.768E-04 alpha_mix =  0.500 |ddv_scf|^2 =  6.310E-09

      iter #   4 total cpu time :  2165.0 secs   av.it.:  20.5
      thresh= 7.944E-06 alpha_mix =  0.500 |ddv_scf|^2 =  1.339E-08

      iter #   5 total cpu time :  2171.4 secs   av.it.:  18.5
      thresh= 1.157E-05 alpha_mix =  0.500 |ddv_scf|^2 =  4.710E-10

      iter #   6 total cpu time :  2177.7 secs   av.it.:  19.5
      thresh= 2.170E-06 alpha_mix =  0.500 |ddv_scf|^2 =  7.952E-11

      iter #   7 total cpu time :  2184.1 secs   av.it.:  19.8
      thresh= 8.918E-07 alpha_mix =  0.500 |ddv_scf|^2 =  1.081E-12

      iter #   8 total cpu time :  2190.5 secs   av.it.:  20.0
      thresh= 1.040E-07 alpha_mix =  0.500 |ddv_scf|^2 =  5.175E-13

      iter #   9 total cpu time :  2196.7 secs   av.it.:  19.5
      thresh= 7.194E-08 alpha_mix =  0.500 |ddv_scf|^2 =  8.375E-14

      iter #  10 total cpu time :  2203.2 secs   av.it.:  19.5
      thresh= 2.894E-08 alpha_mix =  0.500 |ddv_scf|^2 =  6.246E-15

     End of self-consistent calculation

     Convergence has been achieved 


     Representation #  16 mode #  16

     Self-consistent Calculation

      iter #   1 total cpu time :  2207.4 secs   av.it.:   9.5
      thresh= 1.000E-02 alpha_mix =  0.500 |ddv_scf|^2 =  1.861E-06

      iter #   2 total cpu time :  2213.5 secs   av.it.:  19.0
      thresh= 1.364E-04 alpha_mix =  0.500 |ddv_scf|^2 =  8.531E-06

      iter #   3 total cpu time :  2218.9 secs   av.it.:  16.5
      thresh= 2.921E-04 alpha_mix =  0.500 |ddv_scf|^2 =  1.024E-07

      iter #   4 total cpu time :  2225.2 secs   av.it.:  19.5
      thresh= 3.200E-05 alpha_mix =  0.500 |ddv_scf|^2 =  6.275E-08

      iter #   5 total cpu time :  2231.2 secs   av.it.:  18.5
      thresh= 2.505E-05 alpha_mix =  0.500 |ddv_scf|^2 =  5.827E-10

      iter #   6 total cpu time :  2237.3 secs   av.it.:  18.5
      thresh= 2.414E-06 alpha_mix =  0.500 |ddv_scf|^2 =  4.392E-11

      iter #   7 total cpu time :  2244.0 secs   av.it.:  19.8
      thresh= 6.627E-07 alpha_mix =  0.500 |ddv_scf|^2 =  2.735E-12

      iter #   8 total cpu time :  2250.4 secs   av.it.:  20.0
      thresh= 1.654E-07 alpha_mix =  0.500 |ddv_scf|^2 =  3.665E-13

      iter #   9 total cpu time :  2256.8 secs   av.it.:  20.5
      thresh= 6.054E-08 alpha_mix =  0.500 |ddv_scf|^2 =  4.756E-14

      iter #  10 total cpu time :  2262.9 secs   av.it.:  18.5
      thresh= 2.181E-08 alpha_mix =  0.500 |ddv_scf|^2 =  3.993E-14

      iter #  11 total cpu time :  2268.9 secs   av.it.:  18.8
      thresh= 1.998E-08 alpha_mix =  0.500 |ddv_scf|^2 =  9.828E-15

     End of self-consistent calculation

     Convergence has been achieved 


     Representation #  17 mode #  17

     Self-consistent Calculation

      iter #   1 total cpu time :  2273.0 secs   av.it.:   9.8
      thresh= 1.000E-02 alpha_mix =  0.500 |ddv_scf|^2 =  8.435E-06

      iter #   2 total cpu time :  2279.3 secs   av.it.:  18.8
      thresh= 2.904E-04 alpha_mix =  0.500 |ddv_scf|^2 =  4.836E-05

      iter #   3 total cpu time :  2284.7 secs   av.it.:  16.5
      thresh= 6.954E-04 alpha_mix =  0.500 |ddv_scf|^2 =  3.768E-07

      iter #   4 total cpu time :  2290.7 secs   av.it.:  18.5
      thresh= 6.138E-05 alpha_mix =  0.500 |ddv_scf|^2 =  1.192E-08

      iter #   5 total cpu time :  2296.9 secs   av.it.:  19.5
      thresh= 1.092E-05 alpha_mix =  0.500 |ddv_scf|^2 =  8.279E-10

      iter #   6 total cpu time :  2303.2 secs   av.it.:  19.8
      thresh= 2.877E-06 alpha_mix =  0.500 |ddv_scf|^2 =  3.336E-10

      iter #   7 total cpu time :  2309.2 secs   av.it.:  18.5
      thresh= 1.827E-06 alpha_mix =  0.500 |ddv_scf|^2 =  1.724E-11

      iter #   8 total cpu time :  2315.2 secs   av.it.:  18.2
      thresh= 4.152E-07 alpha_mix =  0.500 |ddv_scf|^2 =  7.128E-13

      iter #   9 total cpu time :  2321.3 secs   av.it.:  18.5
      thresh= 8.443E-08 alpha_mix =  0.500 |ddv_scf|^2 =  7.409E-14

      iter #  10 total cpu time :  2327.5 secs   av.it.:  19.2
      thresh= 2.722E-08 alpha_mix =  0.500 |ddv_scf|^2 =  6.944E-15

     End of self-consistent calculation

     Convergence has been achieved 


     Representation #  18 mode #  18

     Self-consistent Calculation

      iter #   1 total cpu time :  2332.0 secs   av.it.:  11.5
      thresh= 1.000E-02 alpha_mix =  0.500 |ddv_scf|^2 =  2.207E-06

      iter #   2 total cpu time :  2338.5 secs   av.it.:  20.2
      thresh= 1.486E-04 alpha_mix =  0.500 |ddv_scf|^2 =  1.344E-05

      iter #   3 total cpu time :  2344.2 secs   av.it.:  17.5
      thresh= 3.666E-04 alpha_mix =  0.500 |ddv_scf|^2 =  3.644E-07

      iter #   4 total cpu time :  2350.4 secs   av.it.:  19.0
      thresh= 6.037E-05 alpha_mix =  0.500 |ddv_scf|^2 =  3.312E-08

      iter #   5 total cpu time :  2356.9 secs   av.it.:  19.5
      thresh= 1.820E-05 alpha_mix =  0.500 |ddv_scf|^2 =  4.731E-10

      iter #   6 total cpu time :  2363.4 secs   av.it.:  20.2
      thresh= 2.175E-06 alpha_mix =  0.500 |ddv_scf|^2 =  8.479E-10

      iter #   7 total cpu time :  2369.5 secs   av.it.:  19.0
      thresh= 2.912E-06 alpha_mix =  0.500 |ddv_scf|^2 =  2.255E-11

      iter #   8 total cpu time :  2375.6 secs   av.it.:  18.5
      thresh= 4.749E-07 alpha_mix =  0.500 |ddv_scf|^2 =  1.148E-12

      iter #   9 total cpu time :  2381.6 secs   av.it.:  18.5
      thresh= 1.071E-07 alpha_mix =  0.500 |ddv_scf|^2 =  9.087E-14

      iter #  10 total cpu time :  2388.1 secs   av.it.:  19.5
      thresh= 3.015E-08 alpha_mix =  0.500 |ddv_scf|^2 =  1.814E-15

     End of self-consistent calculation

     Convergence has been achieved 


     Representation #  19 mode #  19

     Self-consistent Calculation

      iter #   1 total cpu time :  2392.2 secs   av.it.:   9.5
      thresh= 1.000E-02 alpha_mix =  0.500 |ddv_scf|^2 =  1.118E-07

      iter #   2 total cpu time :  2398.3 secs   av.it.:  19.2
      thresh= 3.344E-05 alpha_mix =  0.500 |ddv_scf|^2 =  1.147E-09

      iter #   3 total cpu time :  2404.6 secs   av.it.:  20.0
      thresh= 3.387E-06 alpha_mix =  0.500 |ddv_scf|^2 =  6.532E-11

      iter #   4 total cpu time :  2411.1 secs   av.it.:  20.0
      thresh= 8.082E-07 alpha_mix =  0.500 |ddv_scf|^2 =  3.746E-12

      iter #   5 total cpu time :  2417.5 secs   av.it.:  20.0
      thresh= 1.936E-07 alpha_mix =  0.500 |ddv_scf|^2 =  2.465E-14

      iter #   6 total cpu time :  2424.1 secs   av.it.:  20.8
      thresh= 1.570E-08 alpha_mix =  0.500 |ddv_scf|^2 =  7.511E-16

     End of self-consistent calculation

     Convergence has been achieved 


     Representation #  20 mode #  20

     Self-consistent Calculation

      iter #   1 total cpu time :  2428.3 secs   av.it.:   8.5
      thresh= 1.000E-02 alpha_mix =  0.500 |ddv_scf|^2 =  6.231E-08

      iter #   2 total cpu time :  2434.3 secs   av.it.:  19.0
      thresh= 2.496E-05 alpha_mix =  0.500 |ddv_scf|^2 =  2.230E-09

      iter #   3 total cpu time :  2440.5 secs   av.it.:  19.5
      thresh= 4.722E-06 alpha_mix =  0.500 |ddv_scf|^2 =  3.646E-11

      iter #   4 total cpu time :  2446.6 secs   av.it.:  19.0
      thresh= 6.038E-07 alpha_mix =  0.500 |ddv_scf|^2 =  3.688E-12

      iter #   5 total cpu time :  2452.9 secs   av.it.:  20.0
      thresh= 1.920E-07 alpha_mix =  0.500 |ddv_scf|^2 =  4.469E-14

      iter #   6 total cpu time :  2459.2 secs   av.it.:  19.8
      thresh= 2.114E-08 alpha_mix =  0.500 |ddv_scf|^2 =  4.772E-16

     End of self-consistent calculation

     Convergence has been achieved 


     Representation #  21 mode #  21

     Self-consistent Calculation

      iter #   1 total cpu time :  2463.7 secs   av.it.:  10.5
      thresh= 1.000E-02 alpha_mix =  0.500 |ddv_scf|^2 =  4.018E-07

      iter #   2 total cpu time :  2469.9 secs   av.it.:  19.5
      thresh= 6.339E-05 alpha_mix =  0.500 |ddv_scf|^2 =  1.608E-09

      iter #   3 total cpu time :  2476.3 secs   av.it.:  20.0
      thresh= 4.009E-06 alpha_mix =  0.500 |ddv_scf|^2 =  2.218E-10

      iter #   4 total cpu time :  2482.6 secs   av.it.:  20.0
      thresh= 1.489E-06 alpha_mix =  0.500 |ddv_scf|^2 =  4.332E-12

      iter #   5 total cpu time :  2489.1 secs   av.it.:  20.5
      thresh= 2.081E-07 alpha_mix =  0.500 |ddv_scf|^2 =  1.558E-13

      iter #   6 total cpu time :  2495.6 secs   av.it.:  20.5
      thresh= 3.947E-08 alpha_mix =  0.500 |ddv_scf|^2 =  1.850E-15

     End of self-consistent calculation

     Convergence has been achieved 


     Representation #  22 mode #  22

     Self-consistent Calculation

      iter #   1 total cpu time :  2499.6 secs   av.it.:   8.5
      thresh= 1.000E-02 alpha_mix =  0.500 |ddv_scf|^2 =  4.763E-08

      iter #   2 total cpu time :  2505.8 secs   av.it.:  19.0
      thresh= 2.182E-05 alpha_mix =  0.500 |ddv_scf|^2 =  2.118E-09

      iter #   3 total cpu time :  2512.0 secs   av.it.:  19.5
      thresh= 4.602E-06 alpha_mix =  0.500 |ddv_scf|^2 =  2.699E-11

      iter #   4 total cpu time :  2518.1 secs   av.it.:  19.0
      thresh= 5.196E-07 alpha_mix =  0.500 |ddv_scf|^2 =  2.724E-12

      iter #   5 total cpu time :  2524.5 secs   av.it.:  20.2
      thresh= 1.651E-07 alpha_mix =  0.500 |ddv_scf|^2 =  3.514E-14

      iter #   6 total cpu time :  2531.0 secs   av.it.:  19.5
      thresh= 1.875E-08 alpha_mix =  0.500 |ddv_scf|^2 =  2.693E-16

     End of self-consistent calculation

     Convergence has been achieved 


     Representation #  23 mode #  23

     Self-consistent Calculation

      iter #   1 total cpu time :  2535.0 secs   av.it.:   8.5
      thresh= 1.000E-02 alpha_mix =  0.500 |ddv_scf|^2 =  5.058E-08

      iter #   2 total cpu time :  2541.1 secs   av.it.:  19.2
      thresh= 2.249E-05 alpha_mix =  0.500 |ddv_scf|^2 =  1.470E-09

      iter #   3 total cpu time :  2547.3 secs   av.it.:  19.8
      thresh= 3.834E-06 alpha_mix =  0.500 |ddv_scf|^2 =  5.001E-11

      iter #   4 total cpu time :  2553.5 secs   av.it.:  19.8
      thresh= 7.072E-07 alpha_mix =  0.500 |ddv_scf|^2 =  2.683E-12

      iter #   5 total cpu time :  2559.9 secs   av.it.:  20.2
      thresh= 1.638E-07 alpha_mix =  0.500 |ddv_scf|^2 =  1.275E-14

      iter #   6 total cpu time :  2566.3 secs   av.it.:  20.8
      thresh= 1.129E-08 alpha_mix =  0.500 |ddv_scf|^2 =  3.180E-16

     End of self-consistent calculation

     Convergence has been achieved 


     Representation #  24 mode #  24

     Self-consistent Calculation

      iter #   1 total cpu time :  2570.5 secs   av.it.:  10.5
      thresh= 1.000E-02 alpha_mix =  0.500 |ddv_scf|^2 =  3.054E-07

      iter #   2 total cpu time :  2576.6 secs   av.it.:  19.5
      thresh= 5.527E-05 alpha_mix =  0.500 |ddv_scf|^2 =  1.099E-09

      iter #   3 total cpu time :  2582.7 secs   av.it.:  19.5
      thresh= 3.314E-06 alpha_mix =  0.500 |ddv_scf|^2 =  1.757E-10

      iter #   4 total cpu time :  2589.1 secs   av.it.:  20.5
      thresh= 1.325E-06 alpha_mix =  0.500 |ddv_scf|^2 =  2.063E-12

      iter #   5 total cpu time :  2595.6 secs   av.it.:  20.5
      thresh= 1.436E-07 alpha_mix =  0.500 |ddv_scf|^2 =  4.984E-14

      iter #   6 total cpu time :  2602.1 secs   av.it.:  20.5
      thresh= 2.233E-08 alpha_mix =  0.500 |ddv_scf|^2 =  1.341E-15

     End of self-consistent calculation

     Convergence has been achieved 


     Representation #  25 mode #  25

     Self-consistent Calculation

      iter #   1 total cpu time :  2606.0 secs   av.it.:   9.0
      thresh= 1.000E-02 alpha_mix =  0.500 |ddv_scf|^2 =  1.979E-07

      iter #   2 total cpu time :  2612.5 secs   av.it.:  20.2
      thresh= 4.449E-05 alpha_mix =  0.500 |ddv_scf|^2 =  3.272E-07

      iter #   3 total cpu time :  2618.8 secs   av.it.:  19.5
      thresh= 5.720E-05 alpha_mix =  0.500 |ddv_scf|^2 =  1.269E-07

      iter #   4 total cpu time :  2624.9 secs   av.it.:  18.8
      thresh= 3.562E-05 alpha_mix =  0.500 |ddv_scf|^2 =  4.353E-09

      iter #   5 total cpu time :  2631.2 secs   av.it.:  19.2
      thresh= 6.598E-06 alpha_mix =  0.500 |ddv_scf|^2 =  5.214E-11

      iter #   6 total cpu time :  2637.7 secs   av.it.:  20.5
      thresh= 7.221E-07 alpha_mix =  0.500 |ddv_scf|^2 =  2.186E-11

      iter #   7 total cpu time :  2644.1 secs   av.it.:  19.5
      thresh= 4.676E-07 alpha_mix =  0.500 |ddv_scf|^2 =  2.876E-12

      iter #   8 total cpu time :  2650.4 secs   av.it.:  19.5
      thresh= 1.696E-07 alpha_mix =  0.500 |ddv_scf|^2 =  1.436E-13

      iter #   9 total cpu time :  2656.8 secs   av.it.:  20.0
      thresh= 3.790E-08 alpha_mix =  0.500 |ddv_scf|^2 =  3.546E-15

     End of self-consistent calculation

     Convergence has been achieved 


     Representation #  26 mode #  26

     Self-consistent Calculation

      iter #   1 total cpu time :  2661.3 secs   av.it.:  10.8
      thresh= 1.000E-02 alpha_mix =  0.500 |ddv_scf|^2 =  6.127E-07

      iter #   2 total cpu time :  2667.9 secs   av.it.:  20.5
      thresh= 7.827E-05 alpha_mix =  0.500 |ddv_scf|^2 =  5.813E-07

      iter #   3 total cpu time :  2674.2 secs   av.it.:  19.8
      thresh= 7.624E-05 alpha_mix =  0.500 |ddv_scf|^2 =  3.858E-07

      iter #   4 total cpu time :  2680.3 secs   av.it.:  18.8
      thresh= 6.211E-05 alpha_mix =  0.500 |ddv_scf|^2 =  1.851E-08

      iter #   5 total cpu time :  2686.6 secs   av.it.:  19.5
      thresh= 1.361E-05 alpha_mix =  0.500 |ddv_scf|^2 =  3.068E-10

      iter #   6 total cpu time :  2693.2 secs   av.it.:  20.5
      thresh= 1.752E-06 alpha_mix =  0.500 |ddv_scf|^2 =  1.013E-10

      iter #   7 total cpu time :  2699.7 secs   av.it.:  20.2
      thresh= 1.007E-06 alpha_mix =  0.500 |ddv_scf|^2 =  3.626E-12

      iter #   8 total cpu time :  2706.7 secs   av.it.:  20.5
      thresh= 1.904E-07 alpha_mix =  0.500 |ddv_scf|^2 =  1.612E-13

      iter #   9 total cpu time :  2713.2 secs   av.it.:  20.5
      thresh= 4.015E-08 alpha_mix =  0.500 |ddv_scf|^2 =  3.209E-14

      iter #  10 total cpu time :  2719.9 secs   av.it.:  21.2
      thresh= 1.791E-08 alpha_mix =  0.500 |ddv_scf|^2 =  9.921E-14

      iter #  11 total cpu time :  2726.0 secs   av.it.:  19.0
      thresh= 3.150E-08 alpha_mix =  0.500 |ddv_scf|^2 =  6.921E-15

     End of self-consistent calculation

     Convergence has been achieved 


     Representation #  27 mode #  27

     Self-consistent Calculation

      iter #   1 total cpu time :  2730.0 secs   av.it.:   9.0
      thresh= 1.000E-02 alpha_mix =  0.500 |ddv_scf|^2 =  1.384E-07

      iter #   2 total cpu time :  2736.7 secs   av.it.:  21.2
      thresh= 3.720E-05 alpha_mix =  0.500 |ddv_scf|^2 =  4.952E-07

      iter #   3 total cpu time :  2742.8 secs   av.it.:  19.0
      thresh= 7.037E-05 alpha_mix =  0.500 |ddv_scf|^2 =  3.613E-08

      iter #   4 total cpu time :  2748.9 secs   av.it.:  18.8
      thresh= 1.901E-05 alpha_mix =  0.500 |ddv_scf|^2 =  1.308E-09

      iter #   5 total cpu time :  2755.3 secs   av.it.:  19.8
      thresh= 3.616E-06 alpha_mix =  0.500 |ddv_scf|^2 =  1.008E-10

      iter #   6 total cpu time :  2761.7 secs   av.it.:  19.5
      thresh= 1.004E-06 alpha_mix =  0.500 |ddv_scf|^2 =  6.834E-12

      iter #   7 total cpu time :  2768.2 secs   av.it.:  19.8
      thresh= 2.614E-07 alpha_mix =  0.500 |ddv_scf|^2 =  1.316E-12

      iter #   8 total cpu time :  2774.6 secs   av.it.:  20.2
      thresh= 1.147E-07 alpha_mix =  0.500 |ddv_scf|^2 =  2.429E-13

      iter #   9 total cpu time :  2781.1 secs   av.it.:  20.5
      thresh= 4.928E-08 alpha_mix =  0.500 |ddv_scf|^2 =  1.422E-14

      iter #  10 total cpu time :  2787.4 secs   av.it.:  19.5
      thresh= 1.192E-08 alpha_mix =  0.500 |ddv_scf|^2 =  2.808E-15

     End of self-consistent calculation

     Convergence has been achieved 


     Representation #  28 mode #  28

     Self-consistent Calculation

      iter #   1 total cpu time :  2791.4 secs   av.it.:   9.5
      thresh= 1.000E-02 alpha_mix =  0.500 |ddv_scf|^2 =  4.607E-07

      iter #   2 total cpu time :  2797.8 secs   av.it.:  20.2
      thresh= 6.788E-05 alpha_mix =  0.500 |ddv_scf|^2 =  1.311E-06

      iter #   3 total cpu time :  2804.1 secs   av.it.:  19.0
      thresh= 1.145E-04 alpha_mix =  0.500 |ddv_scf|^2 =  1.691E-07

      iter #   4 total cpu time :  2810.1 secs   av.it.:  18.8
      thresh= 4.112E-05 alpha_mix =  0.500 |ddv_scf|^2 =  3.530E-09

      iter #   5 total cpu time :  2816.4 secs   av.it.:  19.5
      thresh= 5.941E-06 alpha_mix =  0.500 |ddv_scf|^2 =  5.745E-11

      iter #   6 total cpu time :  2822.6 secs   av.it.:  19.5
      thresh= 7.580E-07 alpha_mix =  0.500 |ddv_scf|^2 =  4.193E-12

      iter #   7 total cpu time :  2829.0 secs   av.it.:  19.8
      thresh= 2.048E-07 alpha_mix =  0.500 |ddv_scf|^2 =  1.511E-13

      iter #   8 total cpu time :  2835.5 secs   av.it.:  20.2
      thresh= 3.887E-08 alpha_mix =  0.500 |ddv_scf|^2 =  7.411E-14

      iter #   9 total cpu time :  2841.9 secs   av.it.:  20.0
      thresh= 2.722E-08 alpha_mix =  0.500 |ddv_scf|^2 =  2.382E-14

      iter #  10 total cpu time :  2848.2 secs   av.it.:  19.5
      thresh= 1.543E-08 alpha_mix =  0.500 |ddv_scf|^2 =  8.951E-16

     End of self-consistent calculation

     Convergence has been achieved 


     Representation #  29 mode #  29

     Self-consistent Calculation

      iter #   1 total cpu time :  2852.3 secs   av.it.:   9.5
      thresh= 1.000E-02 alpha_mix =  0.500 |ddv_scf|^2 =  8.292E-07

      iter #   2 total cpu time :  2858.8 secs   av.it.:  20.5
      thresh= 9.106E-05 alpha_mix =  0.500 |ddv_scf|^2 =  2.727E-06

      iter #   3 total cpu time :  2864.9 secs   av.it.:  18.8
      thresh= 1.651E-04 alpha_mix =  0.500 |ddv_scf|^2 =  2.501E-07

      iter #   4 total cpu time :  2871.0 secs   av.it.:  18.8
      thresh= 5.001E-05 alpha_mix =  0.500 |ddv_scf|^2 =  2.558E-09

      iter #   5 total cpu time :  2877.3 secs   av.it.:  20.0
      thresh= 5.058E-06 alpha_mix =  0.500 |ddv_scf|^2 =  1.199E-10

      iter #   6 total cpu time :  2883.7 secs   av.it.:  20.0
      thresh= 1.095E-06 alpha_mix =  0.500 |ddv_scf|^2 =  2.513E-11

      iter #   7 total cpu time :  2890.0 secs   av.it.:  19.5
      thresh= 5.013E-07 alpha_mix =  0.500 |ddv_scf|^2 =  2.976E-12

      iter #   8 total cpu time :  2896.2 secs   av.it.:  19.5
      thresh= 1.725E-07 alpha_mix =  0.500 |ddv_scf|^2 =  1.035E-13

      iter #   9 total cpu time :  2902.6 secs   av.it.:  19.8
      thresh= 3.217E-08 alpha_mix =  0.500 |ddv_scf|^2 =  1.945E-14

      iter #  10 total cpu time :  2909.0 secs   av.it.:  20.5
      thresh= 1.395E-08 alpha_mix =  0.500 |ddv_scf|^2 =  1.486E-15

     End of self-consistent calculation

     Convergence has been achieved 


     Representation #  30 mode #  30

     Self-consistent Calculation

      iter #   1 total cpu time :  2913.1 secs   av.it.:   9.5
      thresh= 1.000E-02 alpha_mix =  0.500 |ddv_scf|^2 =  3.036E-07

      iter #   2 total cpu time :  2919.7 secs   av.it.:  21.2
      thresh= 5.510E-05 alpha_mix =  0.500 |ddv_scf|^2 =  1.477E-06

      iter #   3 total cpu time :  2925.8 secs   av.it.:  18.8
      thresh= 1.215E-04 alpha_mix =  0.500 |ddv_scf|^2 =  4.310E-08

      iter #   4 total cpu time :  2932.0 secs   av.it.:  19.2
      thresh= 2.076E-05 alpha_mix =  0.500 |ddv_scf|^2 =  4.065E-09

      iter #   5 total cpu time :  2938.2 secs   av.it.:  19.0
      thresh= 6.376E-06 alpha_mix =  0.500 |ddv_scf|^2 =  6.641E-11

      iter #   6 total cpu time :  2944.8 secs   av.it.:  20.5
      thresh= 8.149E-07 alpha_mix =  0.500 |ddv_scf|^2 =  1.889E-11

      iter #   7 total cpu time :  2951.1 secs   av.it.:  19.5
      thresh= 4.347E-07 alpha_mix =  0.500 |ddv_scf|^2 =  1.359E-12

      iter #   8 total cpu time :  2957.5 secs   av.it.:  20.0
      thresh= 1.166E-07 alpha_mix =  0.500 |ddv_scf|^2 =  9.845E-14

      iter #   9 total cpu time :  2963.9 secs   av.it.:  20.2
      thresh= 3.138E-08 alpha_mix =  0.500 |ddv_scf|^2 =  3.859E-15

     End of self-consistent calculation

     Convergence has been achieved 


     Representation #  31 mode #  31

     Self-consistent Calculation

      iter #   1 total cpu time :  2968.3 secs   av.it.:  11.0
      thresh= 1.000E-02 alpha_mix =  0.500 |ddv_scf|^2 =  6.540E-07

      iter #   2 total cpu time :  2975.0 secs   av.it.:  21.2
      thresh= 8.087E-05 alpha_mix =  0.500 |ddv_scf|^2 =  7.688E-07

      iter #   3 total cpu time :  2981.4 secs   av.it.:  19.8
      thresh= 8.768E-05 alpha_mix =  0.500 |ddv_scf|^2 =  5.390E-07

      iter #   4 total cpu time :  2987.3 secs   av.it.:  18.5
      thresh= 7.342E-05 alpha_mix =  0.500 |ddv_scf|^2 =  1.937E-08

      iter #   5 total cpu time :  2993.5 secs   av.it.:  19.5
      thresh= 1.392E-05 alpha_mix =  0.500 |ddv_scf|^2 =  5.785E-10

      iter #   6 total cpu time :  3000.1 secs   av.it.:  20.2
      thresh= 2.405E-06 alpha_mix =  0.500 |ddv_scf|^2 =  1.307E-10

      iter #   7 total cpu time :  3006.6 secs   av.it.:  20.2
      thresh= 1.143E-06 alpha_mix =  0.500 |ddv_scf|^2 =  1.873E-12

      iter #   8 total cpu time :  3013.2 secs   av.it.:  20.8
      thresh= 1.369E-07 alpha_mix =  0.500 |ddv_scf|^2 =  3.701E-13

      iter #   9 total cpu time :  3019.5 secs   av.it.:  20.0
      thresh= 6.083E-08 alpha_mix =  0.500 |ddv_scf|^2 =  5.471E-15

     End of self-consistent calculation

     Convergence has been achieved 


     Representation #  32 mode #  32

     Self-consistent Calculation

      iter #   1 total cpu time :  3023.1 secs   av.it.:   8.0
      thresh= 1.000E-02 alpha_mix =  0.500 |ddv_scf|^2 =  5.950E-08

      iter #   2 total cpu time :  3029.3 secs   av.it.:  18.5
      thresh= 2.439E-05 alpha_mix =  0.500 |ddv_scf|^2 =  2.187E-09

      iter #   3 total cpu time :  3035.4 secs   av.it.:  19.0
      thresh= 4.677E-06 alpha_mix =  0.500 |ddv_scf|^2 =  2.842E-11

      iter #   4 total cpu time :  3041.4 secs   av.it.:  18.5
      thresh= 5.331E-07 alpha_mix =  0.500 |ddv_scf|^2 =  3.004E-12

      iter #   5 total cpu time :  3047.7 secs   av.it.:  19.5
      thresh= 1.733E-07 alpha_mix =  0.500 |ddv_scf|^2 =  3.634E-14

      iter #   6 total cpu time :  3054.2 secs   av.it.:  20.2
      thresh= 1.906E-08 alpha_mix =  0.500 |ddv_scf|^2 =  5.779E-16

     End of self-consistent calculation

     Convergence has been achieved 


     Representation #  33 mode #  33

     Self-consistent Calculation

      iter #   1 total cpu time :  3057.9 secs   av.it.:   8.5
      thresh= 1.000E-02 alpha_mix =  0.500 |ddv_scf|^2 =  5.116E-08

      iter #   2 total cpu time :  3064.0 secs   av.it.:  19.2
      thresh= 2.262E-05 alpha_mix =  0.500 |ddv_scf|^2 =  2.149E-09

      iter #   3 total cpu time :  3070.2 secs   av.it.:  19.5
      thresh= 4.636E-06 alpha_mix =  0.500 |ddv_scf|^2 =  2.937E-11

      iter #   4 total cpu time :  3076.3 secs   av.it.:  18.8
      thresh= 5.419E-07 alpha_mix =  0.500 |ddv_scf|^2 =  2.952E-12

      iter #   5 total cpu time :  3082.6 secs   av.it.:  20.0
      thresh= 1.718E-07 alpha_mix =  0.500 |ddv_scf|^2 =  3.848E-14

      iter #   6 total cpu time :  3088.9 secs   av.it.:  19.2
      thresh= 1.962E-08 alpha_mix =  0.500 |ddv_scf|^2 =  4.682E-16

     End of self-consistent calculation

     Convergence has been achieved 


     Representation #  34 mode #  34

     Self-consistent Calculation

      iter #   1 total cpu time :  3092.7 secs   av.it.:   8.5
      thresh= 1.000E-02 alpha_mix =  0.500 |ddv_scf|^2 =  5.239E-08

      iter #   2 total cpu time :  3098.8 secs   av.it.:  19.2
      thresh= 2.289E-05 alpha_mix =  0.500 |ddv_scf|^2 =  1.440E-09

      iter #   3 total cpu time :  3105.2 secs   av.it.:  19.5
      thresh= 3.795E-06 alpha_mix =  0.500 |ddv_scf|^2 =  5.628E-11

      iter #   4 total cpu time :  3111.5 secs   av.it.:  19.8
      thresh= 7.502E-07 alpha_mix =  0.500 |ddv_scf|^2 =  2.779E-12

      iter #   5 total cpu time :  3117.9 secs   av.it.:  20.0
[...]

      iter #   5 total cpu time :  3407.1 secs   av.it.:  18.2
      thresh= 1.756E-05 alpha_mix =  0.500 |ddv_scf|^2 =  3.645E-09

      iter #   6 total cpu time :  3413.0 secs   av.it.:  18.2
      thresh= 6.037E-06 alpha_mix =  0.500 |ddv_scf|^2 =  1.709E-10

      iter #   7 total cpu time :  3419.0 secs   av.it.:  18.5
      thresh= 1.307E-06 alpha_mix =  0.500 |ddv_scf|^2 =  3.368E-12

      iter #   8 total cpu time :  3425.3 secs   av.it.:  20.0
      thresh= 1.835E-07 alpha_mix =  0.500 |ddv_scf|^2 =  1.040E-12

      iter #   9 total cpu time :  3431.9 secs   av.it.:  20.5
      thresh= 1.020E-07 alpha_mix =  0.500 |ddv_scf|^2 =  1.046E-12

      iter #  10 total cpu time :  3438.2 secs   av.it.:  19.5
      thresh= 1.023E-07 alpha_mix =  0.500 |ddv_scf|^2 =  4.983E-14

      iter #  11 total cpu time :  3444.6 secs   av.it.:  19.5
      thresh= 2.232E-08 alpha_mix =  0.500 |ddv_scf|^2 =  1.888E-14

      iter #  12 total cpu time :  3450.8 secs   av.it.:  19.5
      thresh= 1.374E-08 alpha_mix =  0.500 |ddv_scf|^2 =  7.870E-16

     End of self-consistent calculation

     Convergence has been achieved 


     Representation #  40 mode #  40

     Self-consistent Calculation

      iter #   1 total cpu time :  3455.0 secs   av.it.:   9.8
      thresh= 1.000E-02 alpha_mix =  0.500 |ddv_scf|^2 =  5.673E-06

      iter #   2 total cpu time :  3461.1 secs   av.it.:  18.8
      thresh= 2.382E-04 alpha_mix =  0.500 |ddv_scf|^2 =  1.400E-05

      iter #   3 total cpu time :  3466.8 secs   av.it.:  17.5
      thresh= 3.741E-04 alpha_mix =  0.500 |ddv_scf|^2 =  2.908E-07

      iter #   4 total cpu time :  3472.8 secs   av.it.:  18.5
      thresh= 5.393E-05 alpha_mix =  0.500 |ddv_scf|^2 =  1.661E-08

      iter #   5 total cpu time :  3479.1 secs   av.it.:  19.8
      thresh= 1.289E-05 alpha_mix =  0.500 |ddv_scf|^2 =  8.417E-09

      iter #   6 total cpu time :  3485.1 secs   av.it.:  18.5
      thresh= 9.175E-06 alpha_mix =  0.500 |ddv_scf|^2 =  7.238E-10

      iter #   7 total cpu time :  3491.0 secs   av.it.:  18.0
      thresh= 2.690E-06 alpha_mix =  0.500 |ddv_scf|^2 =  5.577E-12

      iter #   8 total cpu time :  3497.5 secs   av.it.:  20.0
      thresh= 2.362E-07 alpha_mix =  0.500 |ddv_scf|^2 =  3.593E-12

      iter #   9 total cpu time :  3503.7 secs   av.it.:  19.5
      thresh= 1.895E-07 alpha_mix =  0.500 |ddv_scf|^2 =  3.547E-13

      iter #  10 total cpu time :  3509.9 secs   av.it.:  19.5
      thresh= 5.956E-08 alpha_mix =  0.500 |ddv_scf|^2 =  1.797E-13

      iter #  11 total cpu time :  3516.2 secs   av.it.:  18.8
      thresh= 4.239E-08 alpha_mix =  0.500 |ddv_scf|^2 =  2.687E-14

      iter #  12 total cpu time :  3522.7 secs   av.it.:  20.5
      thresh= 1.639E-08 alpha_mix =  0.500 |ddv_scf|^2 =  6.089E-14

      iter #  13 total cpu time :  3529.0 secs   av.it.:  19.0
      thresh= 2.467E-08 alpha_mix =  0.500 |ddv_scf|^2 =  1.755E-16

     End of self-consistent calculation

     Convergence has been achieved 


     Representation #  41 mode #  41

     Self-consistent Calculation

      iter #   1 total cpu time :  3533.1 secs   av.it.:   9.8
      thresh= 1.000E-02 alpha_mix =  0.500 |ddv_scf|^2 =  2.626E-06

      iter #   2 total cpu time :  3539.3 secs   av.it.:  19.2
      thresh= 1.621E-04 alpha_mix =  0.500 |ddv_scf|^2 =  6.823E-06

      iter #   3 total cpu time :  3545.1 secs   av.it.:  17.8
      thresh= 2.612E-04 alpha_mix =  0.500 |ddv_scf|^2 =  1.995E-07

      iter #   4 total cpu time :  3551.1 secs   av.it.:  18.8
      thresh= 4.466E-05 alpha_mix =  0.500 |ddv_scf|^2 =  1.937E-08

      iter #   5 total cpu time :  3557.5 secs   av.it.:  19.5
      thresh= 1.392E-05 alpha_mix =  0.500 |ddv_scf|^2 =  5.677E-09

      iter #   6 total cpu time :  3563.6 secs   av.it.:  18.5
      thresh= 7.535E-06 alpha_mix =  0.500 |ddv_scf|^2 =  1.295E-10

      iter #   7 total cpu time :  3569.6 secs   av.it.:  18.5
      thresh= 1.138E-06 alpha_mix =  0.500 |ddv_scf|^2 =  4.350E-12

      iter #   8 total cpu time :  3576.3 secs   av.it.:  20.8
      thresh= 2.086E-07 alpha_mix =  0.500 |ddv_scf|^2 =  4.723E-12

      iter #   9 total cpu time :  3582.4 secs   av.it.:  19.2
      thresh= 2.173E-07 alpha_mix =  0.500 |ddv_scf|^2 =  1.638E-13

      iter #  10 total cpu time :  3589.0 secs   av.it.:  20.5
      thresh= 4.048E-08 alpha_mix =  0.500 |ddv_scf|^2 =  2.039E-13

      iter #  11 total cpu time :  3595.1 secs   av.it.:  19.5
      thresh= 4.516E-08 alpha_mix =  0.500 |ddv_scf|^2 =  1.163E-13

      iter #  12 total cpu time :  3601.1 secs   av.it.:  18.5
      thresh= 3.410E-08 alpha_mix =  0.500 |ddv_scf|^2 =  1.469E-15

     End of self-consistent calculation

     Convergence has been achieved 


     Representation #  42 mode #  42

     Self-consistent Calculation

      iter #   1 total cpu time :  3605.6 secs   av.it.:  11.0
      thresh= 1.000E-02 alpha_mix =  0.500 |ddv_scf|^2 =  1.348E-06

      iter #   2 total cpu time :  3612.1 secs   av.it.:  20.5
      thresh= 1.161E-04 alpha_mix =  0.500 |ddv_scf|^2 =  3.970E-06

      iter #   3 total cpu time :  3618.0 secs   av.it.:  18.5
      thresh= 1.993E-04 alpha_mix =  0.500 |ddv_scf|^2 =  2.715E-07

      iter #   4 total cpu time :  3624.2 secs   av.it.:  19.0
      thresh= 5.210E-05 alpha_mix =  0.500 |ddv_scf|^2 =  6.929E-08

      iter #   5 total cpu time :  3630.4 secs   av.it.:  19.5
      thresh= 2.632E-05 alpha_mix =  0.500 |ddv_scf|^2 =  1.462E-08

      iter #   6 total cpu time :  3636.3 secs   av.it.:  18.5
      thresh= 1.209E-05 alpha_mix =  0.500 |ddv_scf|^2 =  9.174E-10

      iter #   7 total cpu time :  3642.6 secs   av.it.:  19.5
      thresh= 3.029E-06 alpha_mix =  0.500 |ddv_scf|^2 =  3.000E-11

      iter #   8 total cpu time :  3649.0 secs   av.it.:  20.2
      thresh= 5.477E-07 alpha_mix =  0.500 |ddv_scf|^2 =  1.522E-11

      iter #   9 total cpu time :  3655.3 secs   av.it.:  19.5
      thresh= 3.901E-07 alpha_mix =  0.500 |ddv_scf|^2 =  4.064E-12

      iter #  10 total cpu time :  3661.7 secs   av.it.:  20.2
      thresh= 2.016E-07 alpha_mix =  0.500 |ddv_scf|^2 =  2.974E-12

      iter #  11 total cpu time :  3668.0 secs   av.it.:  19.5
      thresh= 1.725E-07 alpha_mix =  0.500 |ddv_scf|^2 =  9.650E-14

      iter #  12 total cpu time :  3674.4 secs   av.it.:  20.2
      thresh= 3.107E-08 alpha_mix =  0.500 |ddv_scf|^2 =  1.101E-13

      iter #  13 total cpu time :  3680.6 secs   av.it.:  19.5
      thresh= 3.318E-08 alpha_mix =  0.500 |ddv_scf|^2 =  1.130E-14

      iter #  14 total cpu time :  3687.0 secs   av.it.:  20.0
      thresh= 1.063E-08 alpha_mix =  0.500 |ddv_scf|^2 =  1.730E-15

     End of self-consistent calculation

     Convergence has been achieved 

     Number of q in the star =    1
     List of q in the star:
          1   0.000000000   0.000000000   0.000000000

          Dielectric constant in cartesian axis 

          (       5.829049070       0.000000000       0.000000000 )
          (       0.000000000       3.678301389       0.000000000 )
          (       0.000000000       0.000000000       6.601671566 )

          Effective charges (d Force / dE) in cartesian axis

           atom      1   V  
      Ex  (        6.31775        0.00000       -0.00000 )
      Ey  (        0.00000        3.16406       -0.06367 )
      Ez  (        0.00000       -0.48783        6.72022 )
           atom      2   V  
      Ex  (        6.31775        0.00000        0.00000 )
      Ey  (        0.00000        3.16406       -0.06367 )
      Ez  (        0.00000       -0.48783        6.72022 )
           atom      3   V  
      Ex  (        6.31775        0.00000        0.00000 )
      Ey  (        0.00000        3.16406        0.06367 )
      Ez  (        0.00000        0.48783        6.72022 )
           atom      4   V  
      Ex  (        6.31775        0.00000        0.00000 )
      Ey  (        0.00000        3.16406        0.06367 )
      Ez  (        0.00000        0.48783        6.72022 )
           atom      5   O  
      Ex  (       -5.24820        0.00000        0.00000 )
      Ey  (        0.00000       -0.77610       -0.30565 )
      Ez  (        0.00000       -0.81491       -2.68145 )
           atom      6   O  
      Ex  (       -5.24820        0.00000        0.00000 )
      Ey  (        0.00000       -0.77610       -0.30565 )
      Ez  (       -0.00000       -0.81491       -2.68145 )
           atom      7   O  
      Ex  (       -5.24820        0.00000       -0.00000 )
      Ey  (        0.00000       -0.77610        0.30565 )
      Ez  (       -0.00000        0.81491       -2.68145 )
           atom      8   O  
      Ex  (       -5.24820        0.00000        0.00000 )
      Ey  (        0.00000       -0.77610        0.30565 )
      Ez  (        0.00000        0.81491       -2.68145 )
           atom      9   O  
      Ex  (       -0.54498        0.00000       -0.00000 )
      Ey  (        0.00000       -2.08318       -0.09697 )
      Ez  (        0.00000       -0.23630       -0.51930 )
           atom     10   O  
      Ex  (       -0.54498       -0.00000        0.00000 )
      Ey  (        0.00000       -2.08318       -0.09697 )
      Ez  (        0.00000       -0.23630       -0.51930 )
           atom     11   O  
      Ex  (       -0.54498        0.00000        0.00000 )
      Ey  (        0.00000       -2.08318        0.09697 )
      Ez  (        0.00000        0.23630       -0.51930 )
           atom     12   O  
      Ex  (       -1.01823        0.00000        0.00000 )
      Ey  (       -0.00000       -0.66882       -0.00000 )
      Ez  (        0.00000        0.00000       -7.16212 )
           atom     13   O  
      Ex  (       -1.01823        0.00000       -0.00000 )
      Ey  (       -0.00000       -0.66882        0.00000 )
      Ez  (       -0.00000        0.00000       -7.16212 )
           atom     14   O  
      Ex  (       -0.54498       -0.00000        0.00000 )
      Ey  (        0.00000       -2.08318        0.09697 )
      Ez  (        0.00000        0.23630       -0.51930 )

     Diagonalizing the dynamical matrix

     q = (    0.000000000   0.000000000   0.000000000 ) 

 **************************************************************************
     freq (    1) =      -0.832905 [THz] =     -27.782711 [cm-1]
     freq (    2) =      -0.533872 [THz] =     -17.808038 [cm-1]
     freq (    3) =      -0.446540 [THz] =     -14.894976 [cm-1]
     freq (    4) =       1.911360 [THz] =      63.756107 [cm-1]
     freq (    5) =       2.148272 [THz] =      71.658641 [cm-1]
     freq (    6) =       2.937680 [THz] =      97.990462 [cm-1]
     freq (    7) =       4.017763 [THz] =     134.018156 [cm-1]
     freq (    8) =       4.077507 [THz] =     136.010982 [cm-1]
     freq (    9) =       4.371967 [THz] =     145.833119 [cm-1]
     freq (   10) =       4.538679 [THz] =     151.394025 [cm-1]
     freq (   11) =       5.644146 [THz] =     188.268439 [cm-1]
     freq (   12) =       5.844917 [THz] =     194.965437 [cm-1]
     freq (   13) =       6.246318 [THz] =     208.354739 [cm-1]
     freq (   14) =       6.913556 [THz] =     230.611421 [cm-1]
     freq (   15) =       7.671947 [THz] =     255.908611 [cm-1]
     freq (   16) =       8.037518 [THz] =     268.102744 [cm-1]
     freq (   17) =       8.453631 [THz] =     281.982791 [cm-1]
     freq (   18) =       8.555368 [THz] =     285.376375 [cm-1]
     freq (   19) =       8.712355 [THz] =     290.612875 [cm-1]
     freq (   20) =       8.730479 [THz] =     291.217449 [cm-1]
     freq (   21) =       9.100757 [THz] =     303.568562 [cm-1]
     freq (   22) =       9.258479 [THz] =     308.829603 [cm-1]
     freq (   23) =       9.975843 [THz] =     332.758299 [cm-1]
     freq (   24) =      10.523189 [THz] =     351.015788 [cm-1]
     freq (   25) =      10.621713 [THz] =     354.302213 [cm-1]
     freq (   26) =      12.019914 [THz] =     400.941169 [cm-1]
     freq (   27) =      12.218177 [THz] =     407.554504 [cm-1]
     freq (   28) =      13.895876 [THz] =     463.516517 [cm-1]
     freq (   29) =      14.118623 [THz] =     470.946567 [cm-1]
     freq (   30) =      14.317708 [THz] =     477.587318 [cm-1]
     freq (   31) =      14.618020 [THz] =     487.604654 [cm-1]
     freq (   32) =      14.794742 [THz] =     493.499476 [cm-1]
     freq (   33) =      15.794183 [THz] =     526.837250 [cm-1]
     freq (   34) =      18.273639 [THz] =     609.542982 [cm-1]
     freq (   35) =      20.570336 [THz] =     686.152536 [cm-1]
     freq (   36) =      20.573679 [THz] =     686.264058 [cm-1]
     freq (   37) =      23.216948 [THz] =     774.434036 [cm-1]
     freq (   38) =      28.238740 [THz] =     941.942987 [cm-1]
     freq (   39) =      30.359087 [THz] =    1012.670129 [cm-1]
     freq (   40) =      30.474681 [THz] =    1016.525956 [cm-1]
     freq (   41) =      30.939805 [THz] =    1032.040811 [cm-1]
     freq (   42) =      31.011556 [THz] =    1034.434151 [cm-1]
 **************************************************************************

     Mode symmetry, D_2h (mmm)  point group:

     freq (   1-   1) =        -27.8  [cm-1]   --> B_3u            I  
     freq (   2-   2) =        -17.8  [cm-1]   --> B_2u            I  
     freq (   3-   3) =        -14.9  [cm-1]   --> B_1u            I  
     freq (   4-   4) =         63.8  [cm-1]   --> A_u                
     freq (   5-   5) =         71.7  [cm-1]   --> B_1u            I  
     freq (   6-   6) =         98.0  [cm-1]   --> A_g             R  
     freq (   7-   7) =        134.0  [cm-1]   --> B_3u            I  
     freq (   8-   8) =        136.0  [cm-1]   --> B_2g            R  
     freq (   9-   9) =        145.8  [cm-1]   --> B_3g            R  
     freq (  10-  10) =        151.4  [cm-1]   --> B_1g            R  
     freq (  11-  11) =        188.3  [cm-1]   --> A_g             R  
     freq (  12-  12) =        195.0  [cm-1]   --> B_2g            R  
     freq (  13-  13) =        208.4  [cm-1]   --> B_2u            I  
     freq (  14-  14) =        230.6  [cm-1]   --> B_1g            R  
     freq (  15-  15) =        255.9  [cm-1]   --> B_1u            I  
     freq (  16-  16) =        268.1  [cm-1]   --> A_u                
     freq (  17-  17) =        282.0  [cm-1]   --> B_2u            I  
     freq (  18-  18) =        285.4  [cm-1]   --> B_3g            R  
     freq (  19-  19) =        290.6  [cm-1]   --> B_3u            I  
     freq (  20-  20) =        291.2  [cm-1]   --> B_1g            R  
     freq (  21-  21) =        303.6  [cm-1]   --> A_g             R  
     freq (  22-  22) =        308.8  [cm-1]   --> B_2g            R  
     freq (  23-  23) =        332.8  [cm-1]   --> B_1u            I  
     freq (  24-  24) =        351.0  [cm-1]   --> B_2g            R  
     freq (  25-  25) =        354.3  [cm-1]   --> B_3u            I  
     freq (  26-  26) =        400.9  [cm-1]   --> A_g             R  
     freq (  27-  27) =        407.6  [cm-1]   --> B_1u            I  
     freq (  28-  28) =        463.5  [cm-1]   --> A_g             R  
     freq (  29-  29) =        470.9  [cm-1]   --> B_3u            I  
     freq (  30-  30) =        477.6  [cm-1]   --> B_2g            R  
     freq (  31-  31) =        487.6  [cm-1]   --> A_u                
     freq (  32-  32) =        493.5  [cm-1]   --> B_2u            I  
     freq (  33-  33) =        526.8  [cm-1]   --> A_g             R  
     freq (  34-  34) =        609.5  [cm-1]   --> B_3u            I  
     freq (  35-  35) =        686.2  [cm-1]   --> B_3g            R  
     freq (  36-  36) =        686.3  [cm-1]   --> B_1g            R  
     freq (  37-  37) =        774.4  [cm-1]   --> B_1u            I  
     freq (  38-  38) =        941.9  [cm-1]   --> B_2g            R  
     freq (  39-  39) =       1012.7  [cm-1]   --> B_1u            I  
     freq (  40-  40) =       1016.5  [cm-1]   --> B_3u            I  
     freq (  41-  41) =       1032.0  [cm-1]   --> B_2g            R  
     freq (  42-  42) =       1034.4  [cm-1]   --> A_g             R  

     PHONON       :  59m49.10s CPU      1h 1m WALL

     INITIALIZATION: 
     phq_setup    :      0.07s CPU      0.09s WALL (       1 calls)
     phq_init     :      2.36s CPU      2.38s WALL (       1 calls)

     phq_init     :      2.36s CPU      2.38s WALL (       1 calls)
     set_drhoc    :      0.79s CPU      0.79s WALL (       3 calls)
     init_vloc    :      0.14s CPU      0.14s WALL (       1 calls)
     init_us_1    :      0.01s CPU      0.01s WALL (       1 calls)

     DIELECTRIC CONSTANT AND EFFECTIVE CHARGES:
     solve_e      :    283.06s CPU    291.24s WALL (       1 calls)
     dielec       :      0.01s CPU      0.01s WALL (       1 calls)
     zstar_eu     :      8.55s CPU      9.09s WALL (       1 calls)

     RAMAN COEFFICIENTS, THIRD-ORDER CHI:
     dhdrhopsi    :    337.77s CPU    344.06s WALL (       1 calls)
     dvpsi_e2     :      3.59s CPU      3.92s WALL (       1 calls)
     solve_e2     :    626.36s CPU    646.03s WALL (       1 calls)

     DYNAMICAL MATRIX:
     dynmat0      :      1.57s CPU      1.59s WALL (       1 calls)
     phqscf       :   2272.84s CPU   2334.89s WALL (       1 calls)
     dynmatrix    :      0.02s CPU      0.03s WALL (       1 calls)

     phqscf       :   2272.84s CPU   2334.89s WALL (       1 calls)
     solve_linter :   2262.06s CPU   2323.63s WALL (      42 calls)
     drhodv       :     10.64s CPU     10.94s WALL (      42 calls)

     dynmat0      :      1.57s CPU      1.59s WALL (       1 calls)
     dynmat_us    :      0.53s CPU      0.55s WALL (       1 calls)
     d2ionq       :      0.29s CPU      0.29s WALL (       1 calls)
     dynmatcc     :      0.62s CPU      0.62s WALL (       1 calls)

     dynmat_us    :      0.53s CPU      0.55s WALL (       1 calls)

     phqscf       :   2272.84s CPU   2334.89s WALL (       1 calls)
     solve_linter :   2262.06s CPU   2323.63s WALL (      42 calls)

     solve_linter :   2262.06s CPU   2323.63s WALL (      42 calls)
     dvqpsi_us    :     38.20s CPU     39.35s WALL (    1008 calls)
     ortho        :     12.62s CPU     12.78s WALL (    1800 calls)
     cgsolve      :   3124.73s CPU   3176.61s WALL (    2400 calls)
     incdrhoscf   :     39.58s CPU     41.94s WALL (    2244 calls)
     vpsifft      :     24.61s CPU     26.67s WALL (    1380 calls)
     dv_of_drho   :     22.14s CPU     23.99s WALL (     570 calls)
     mix_pot      :      4.37s CPU      9.01s WALL (     423 calls)
     psymdvscf    :    165.59s CPU    175.36s WALL (     387 calls)

     dvqpsi_us    :     38.20s CPU     39.35s WALL (    1008 calls)
     dvqpsi_us_on :     16.49s CPU     16.60s WALL (    1008 calls)

     cgsolve      :   3124.73s CPU   3176.61s WALL (    2400 calls)
     ch_psi       :   3039.93s CPU   3090.94s WALL (   77895 calls)

     ch_psi       :   3039.93s CPU   3090.94s WALL (   77895 calls)
     h_psi        :   1995.76s CPU   2035.83s WALL (  114021 calls)
     last         :   1038.97s CPU   1050.32s WALL (   77895 calls)

     h_psi        :   1995.76s CPU   2035.83s WALL (  114021 calls)
     add_vuspsi   :    498.32s CPU    499.78s WALL (  114021 calls)

     incdrhoscf   :     39.58s CPU     41.94s WALL (    2244 calls)


      General routines
     calbec       :   1340.08s CPU   1364.89s WALL (  230846 calls)
     fft          :     21.00s CPU     23.40s WALL (   11640 calls)
     ffts         :      1.40s CPU      1.44s WALL (    3910 calls)
     fftw         :    864.31s CPU    892.73s WALL ( 6305316 calls)
     davcio       :      4.33s CPU     12.23s WALL (   13330 calls)
     write_rec    :      0.53s CPU      1.44s WALL (     465 calls)


     PHONON       :  59m49.10s CPU      1h 1m WALL


   This run was terminated on:  16:29: 3  13Oct2024            

=------------------------------------------------------------------------------=
   JOB DONE.
=------------------------------------------------------------------------------=
