
     Program PWSCF v.6.4.1 starts on 13Oct2024 at  1:40:15 

     This program is part of the open-source Quantum ESPRESSO suite
     for quantum simulation of materials; please cite
         "P. Giannozzi et al., J. Phys.:Condens. Matter 21 395502 (2009);
         "P. Giannozzi et al., J. Phys.:Condens. Matter 29 465901 (2017);
          URL http://www.quantum-espresso.org", 
     in publications or presentations arising from this work. More details at
     http://www.quantum-espresso.org/quote

     Parallel version (MPI), running on    32 processors

     MPI processes distributed on     1 nodes
     R & G space division:  proc/nbgrp/npool/nimage =      32
     Reading input from v2o5.scf.in

     Current dimensions of program PWSCF are:
     Max number of different atomic species (ntypx) = 10
     Max number of k-points (npk) =  40000
     Max angular momentum in pseudopotentials (lmaxx) =  3

     -------------------------------------------------
     Parameters for Dispersion (Grimme-D2) Correction:
     -------------------------------------------------
       atom      VdW radius       C_6     

        V          2.952        374.666
        O          2.536         24.284

     Subspace diagonalization in iterative solution of the eigenvalue problem:
     one sub-group per band group will be used
     ELPA distributed-memory algorithm (size of sub-group:  4*  4 procs)


     Parallelization info
     --------------------
     sticks:   dense  smooth     PW     G-vecs:    dense   smooth      PW
     Min         112      44     12                14725     3718     524
     Max         113      45     14                14736     3731     532
     Sum        3589    1435    387               471309   119147   16947



     bravais-lattice index     =            8
     lattice parameter (alat)  =       6.6827  a.u.
     unit-cell volume          =    1233.7754 (a.u.)^3
     number of atoms/cell      =           14
     number of atomic types    =            2
     number of electrons       =       112.00
     number of Kohn-Sham states=           56
     kinetic-energy cutoff     =      80.0000  Ry
     charge density cutoff     =     800.0000  Ry
     convergence threshold     =      1.0E-12
     mixing beta               =       0.7000
     number of iterations used =            8  plain     mixing
     Exchange-correlation      = PBE ( 1  4  3  4 0 0)

     celldm(1)=   6.682699  celldm(2)=   1.263922  celldm(3)=   3.270846
     celldm(4)=   0.000000  celldm(5)=   0.000000  celldm(6)=   0.000000

     crystal axes: (cart. coord. in units of alat)
               a(1) = (   1.000000   0.000000   0.000000 )  
               a(2) = (   0.000000   1.263922   0.000000 )  
               a(3) = (   0.000000   0.000000   3.270846 )  

     reciprocal axes: (cart. coord. in units 2 pi/alat)
               b(1) = (  1.000000  0.000000  0.000000 )  
               b(2) = (  0.000000  0.791188  0.000000 )  
               b(3) = (  0.000000  0.000000  0.305731 )  


     PseudoPot. # 1 for V  read from file:
     /home/mpicuntureo/pseudos/v.nc.upf
     MD5 check sum: 40fb93c06b4f9d8c28c5ccd071294a04
     Pseudo is Norm-conserving + core correction, Zval = 13.0
     Generated using ONCVPSP code by D. R. Hamann
     Using radial grid of 1536 points,  6 beta functions with: 
                l(1) =   0
                l(2) =   0
                l(3) =   1
                l(4) =   1
                l(5) =   2
                l(6) =   2

     PseudoPot. # 2 for O  read from file:
     /home/mpicuntureo/pseudos/o.nc.upf
     MD5 check sum: 3e3f909f7470e8921608ab6b1f57bbae
     Pseudo is Norm-conserving + core correction, Zval =  6.0
     Generated using ONCVPSP code by D. R. Hamann
     Using radial grid of  936 points,  5 beta functions with: 
                l(1) =   0
                l(2) =   0
                l(3) =   1
                l(4) =   1
                l(5) =   2

     atomic species   valence    mass     pseudopotential
        V             13.00    50.94150     V ( 1.00)
        O              6.00    15.99940     O ( 1.00)

      8 Sym. Ops., with inversion, found ( 4 have fractional translation)



   Cartesian axes

     site n.     atom                  positions (alat units)
         1           V   tau(   1) = (   0.0000000   0.4839317   2.1197364  )
         2           V   tau(   2) = (   0.5000000   0.7799903   2.7865326  )
         3           V   tau(   3) = (   0.5000000   0.7799903   0.4843134  )
         4           V   tau(   4) = (   0.0000000   0.4839317   1.1511096  )
         5           O   tau(   5) = (   0.5000000   0.6221956   2.2284774  )
         6           O   tau(   6) = (   0.0000000   0.6417264   2.6777915  )
         7           O   tau(   7) = (   0.0000000   0.6417264   0.5930544  )
         8           O   tau(   8) = (   0.5000000   0.6221956   1.0423686  )
         9           O   tau(   9) = (   0.0000000   0.0365675   1.1586802  )
        10           O   tau(  10) = (   0.5000000   1.2273545   0.4767428  )
        11           O   tau(  11) = (   0.5000000   1.2273545   2.7941032  )
        12           O   tau(  12) = (   0.5000000   0.6433804   0.0000000  )
        13           O   tau(  13) = (   0.0000000   0.6205416   1.6354230  )
        14           O   tau(  14) = (   0.0000000   0.0365675   2.1121657  )

     number of k points=     4
                       cart. coord. in units 2pi/alat
        k(    1) = (   0.0000000   0.0000000   0.0000000), wk =   0.2222222
        k(    2) = (   0.0000000   0.2637294   0.0000000), wk =   0.4444444
        k(    3) = (   0.3333333   0.0000000   0.0000000), wk =   0.4444444
        k(    4) = (   0.3333333   0.2637294   0.0000000), wk =   0.8888889

     Dense  grid:   471309 G-vectors     FFT dimensions: (  64,  80, 200)

     Smooth grid:   119147 G-vectors     FFT dimensions: (  40,  50, 128)

     Estimated max dynamical RAM per process >      20.69 MB

     Estimated total dynamical RAM >     662.11 MB

     Initial potential from superposition of free atoms

     starting charge  111.99579, renormalised to  112.00000
     Starting wfcs are   80 randomized atomic wfcs

     total cpu time spent up to now is        1.8 secs

     Self-consistent Calculation

     iteration #  1     ecut=    80.00 Ry     beta= 0.70
     Davidson diagonalization with overlap
     ethr =  1.00E-02,  avg # of iterations =  2.0

     total cpu time spent up to now is        2.7 secs

     total energy              =    -917.44788309 Ry
     Harris-Foulkes estimate   =    -923.62486528 Ry
     estimated scf accuracy    <       7.75366867 Ry

     iteration #  2     ecut=    80.00 Ry     beta= 0.70
     Davidson diagonalization with overlap
     ethr =  6.92E-03,  avg # of iterations =  6.2

     total cpu time spent up to now is        4.6 secs

     total energy              =    -908.10300589 Ry
     Harris-Foulkes estimate   =    -938.53321320 Ry
     estimated scf accuracy    <     136.24462141 Ry

     iteration #  3     ecut=    80.00 Ry     beta= 0.70
     Davidson diagonalization with overlap
     ethr =  6.92E-03,  avg # of iterations =  5.8

     total cpu time spent up to now is        6.3 secs

     total energy              =    -921.91050301 Ry
     Harris-Foulkes estimate   =    -922.67710291 Ry
     estimated scf accuracy    <       2.56371081 Ry

     iteration #  4     ecut=    80.00 Ry     beta= 0.70
     Davidson diagonalization with overlap
     ethr =  2.29E-03,  avg # of iterations =  3.8

     total cpu time spent up to now is        7.2 secs

     total energy              =    -922.06520558 Ry
     Harris-Foulkes estimate   =    -922.19680836 Ry
     estimated scf accuracy    <       0.84241264 Ry

     iteration #  5     ecut=    80.00 Ry     beta= 0.70
     Davidson diagonalization with overlap
     ethr =  7.52E-04,  avg # of iterations =  4.0

     total cpu time spent up to now is        8.1 secs

     total energy              =    -922.00483928 Ry
     Harris-Foulkes estimate   =    -922.12870763 Ry
     estimated scf accuracy    <       0.42285040 Ry

     iteration #  6     ecut=    80.00 Ry     beta= 0.70
     Davidson diagonalization with overlap
     ethr =  3.78E-04,  avg # of iterations =  4.0

     total cpu time spent up to now is        9.3 secs

     total energy              =    -922.13150183 Ry
     Harris-Foulkes estimate   =    -922.14786846 Ry
     estimated scf accuracy    <       0.18030951 Ry

     iteration #  7     ecut=    80.00 Ry     beta= 0.70
     Davidson diagonalization with overlap
     ethr =  1.61E-04,  avg # of iterations =  2.0

     total cpu time spent up to now is       10.0 secs

     total energy              =    -922.10546139 Ry
     Harris-Foulkes estimate   =    -922.13386035 Ry
     estimated scf accuracy    <       0.13729027 Ry

     iteration #  8     ecut=    80.00 Ry     beta= 0.70
     Davidson diagonalization with overlap
     ethr =  1.23E-04,  avg # of iterations =  3.8

     total cpu time spent up to now is       11.0 secs

     total energy              =    -922.12432260 Ry
     Harris-Foulkes estimate   =    -922.12532458 Ry
     estimated scf accuracy    <       0.00242686 Ry

     iteration #  9     ecut=    80.00 Ry     beta= 0.70
     Davidson diagonalization with overlap
     ethr =  2.17E-06,  avg # of iterations =  5.8

     total cpu time spent up to now is       12.5 secs

     total energy              =    -922.12622742 Ry
     Harris-Foulkes estimate   =    -922.12653643 Ry
     estimated scf accuracy    <       0.00153067 Ry

     iteration # 10     ecut=    80.00 Ry     beta= 0.70
     Davidson diagonalization with overlap
     ethr =  1.37E-06,  avg # of iterations =  4.0

     total cpu time spent up to now is       13.4 secs

     total energy              =    -922.12629805 Ry
     Harris-Foulkes estimate   =    -922.12640301 Ry
     estimated scf accuracy    <       0.00050559 Ry

     iteration # 11     ecut=    80.00 Ry     beta= 0.70
     Davidson diagonalization with overlap
     ethr =  4.51E-07,  avg # of iterations =  3.5

     total cpu time spent up to now is       14.2 secs

     total energy              =    -922.12629837 Ry
     Harris-Foulkes estimate   =    -922.12633203 Ry
     estimated scf accuracy    <       0.00014105 Ry

     iteration # 12     ecut=    80.00 Ry     beta= 0.70
     Davidson diagonalization with overlap
     ethr =  1.26E-07,  avg # of iterations =  4.0

     total cpu time spent up to now is       15.4 secs

     total energy              =    -922.12634477 Ry
     Harris-Foulkes estimate   =    -922.12635219 Ry
     estimated scf accuracy    <       0.00006442 Ry

     iteration # 13     ecut=    80.00 Ry     beta= 0.70
     Davidson diagonalization with overlap
     ethr =  5.75E-08,  avg # of iterations =  1.2

     total cpu time spent up to now is       16.1 secs

     total energy              =    -922.12633934 Ry
     Harris-Foulkes estimate   =    -922.12634578 Ry
     estimated scf accuracy    <       0.00004274 Ry

     iteration # 14     ecut=    80.00 Ry     beta= 0.70
     Davidson diagonalization with overlap
     ethr =  3.82E-08,  avg # of iterations =  3.2

     total cpu time spent up to now is       16.9 secs

     total energy              =    -922.12634206 Ry
     Harris-Foulkes estimate   =    -922.12634273 Ry
     estimated scf accuracy    <       0.00000609 Ry

     iteration # 15     ecut=    80.00 Ry     beta= 0.70
     Davidson diagonalization with overlap
     ethr =  5.43E-09,  avg # of iterations =  4.8

     total cpu time spent up to now is       18.1 secs

     total energy              =    -922.12634444 Ry
     Harris-Foulkes estimate   =    -922.12634468 Ry
     estimated scf accuracy    <       0.00000089 Ry

     iteration # 16     ecut=    80.00 Ry     beta= 0.70
     Davidson diagonalization with overlap
     ethr =  7.92E-10,  avg # of iterations =  4.0

     total cpu time spent up to now is       19.1 secs

     total energy              =    -922.12634457 Ry
     Harris-Foulkes estimate   =    -922.12634457 Ry
     estimated scf accuracy    <       0.00000013 Ry

     iteration # 17     ecut=    80.00 Ry     beta= 0.70
     Davidson diagonalization with overlap
     ethr =  1.14E-10,  avg # of iterations =  6.0

     total cpu time spent up to now is       20.8 secs

     total energy              =    -922.12634454 Ry
     Harris-Foulkes estimate   =    -922.12634479 Ry
     estimated scf accuracy    <       0.00000191 Ry

     iteration # 18     ecut=    80.00 Ry     beta= 0.70
     Davidson diagonalization with overlap
     ethr =  1.14E-10,  avg # of iterations =  4.2

     total cpu time spent up to now is       22.1 secs

     total energy              =    -922.12634452 Ry
     Harris-Foulkes estimate   =    -922.12634460 Ry
     estimated scf accuracy    <       0.00000038 Ry

     iteration # 19     ecut=    80.00 Ry     beta= 0.70
     Davidson diagonalization with overlap
     ethr =  1.14E-10,  avg # of iterations =  4.0

     total cpu time spent up to now is       23.2 secs

     total energy              =    -922.12634455 Ry
     Harris-Foulkes estimate   =    -922.12634456 Ry
     estimated scf accuracy    <          3.0E-09 Ry

     iteration # 20     ecut=    80.00 Ry     beta= 0.70
     Davidson diagonalization with overlap
     ethr =  2.70E-12,  avg # of iterations =  5.0

     total cpu time spent up to now is       24.6 secs

     total energy              =    -922.12634456 Ry
     Harris-Foulkes estimate   =    -922.12634456 Ry
     estimated scf accuracy    <          4.2E-10 Ry

     iteration # 21     ecut=    80.00 Ry     beta= 0.70
     Davidson diagonalization with overlap
     ethr =  3.72E-13,  avg # of iterations =  5.0

     total cpu time spent up to now is       25.6 secs

     total energy              =    -922.12634456 Ry
     Harris-Foulkes estimate   =    -922.12634456 Ry
     estimated scf accuracy    <          1.0E-09 Ry

     iteration # 22     ecut=    80.00 Ry     beta= 0.70
     Davidson diagonalization with overlap
     ethr =  3.72E-13,  avg # of iterations =  1.0

     total cpu time spent up to now is       26.2 secs

     total energy              =    -922.12634456 Ry
     Harris-Foulkes estimate   =    -922.12634456 Ry
     estimated scf accuracy    <          8.0E-10 Ry

     iteration # 23     ecut=    80.00 Ry     beta= 0.70
     Davidson diagonalization with overlap
     ethr =  3.72E-13,  avg # of iterations =  3.8

     total cpu time spent up to now is       27.0 secs

     total energy              =    -922.12634456 Ry
     Harris-Foulkes estimate   =    -922.12634456 Ry
     estimated scf accuracy    <          1.1E-10 Ry

     iteration # 24     ecut=    80.00 Ry     beta= 0.70
     Davidson diagonalization with overlap
     ethr =  1.00E-13,  avg # of iterations =  4.2

     total cpu time spent up to now is       28.0 secs

     total energy              =    -922.12634456 Ry
     Harris-Foulkes estimate   =    -922.12634456 Ry
     estimated scf accuracy    <          8.7E-12 Ry

     iteration # 25     ecut=    80.00 Ry     beta= 0.70
     Davidson diagonalization with overlap
     ethr =  1.00E-13,  avg # of iterations =  1.5

     total cpu time spent up to now is       28.6 secs

     total energy              =    -922.12634456 Ry
     Harris-Foulkes estimate   =    -922.12634456 Ry
     estimated scf accuracy    <          3.8E-12 Ry

     iteration # 26     ecut=    80.00 Ry     beta= 0.70
     Davidson diagonalization with overlap
     ethr =  1.00E-13,  avg # of iterations =  1.0

     total cpu time spent up to now is       29.2 secs

     End of self-consistent calculation

          k = 0.0000 0.0000 0.0000 ( 14925 PWs)   bands (ev):

   -59.9674 -59.9654 -59.9565 -59.9546 -34.0039 -34.0016 -33.9947 -33.9891
   -33.9096 -33.8562 -33.8298 -33.8001 -33.7976 -33.7789 -33.7658 -33.7633
   -13.5414 -13.4180 -12.4512 -12.3241 -12.2392 -12.1977 -11.8148 -11.8105
   -11.6526 -11.6325  -0.4177  -0.4046  -0.3587  -0.2486  -0.0701   0.3635
     1.0587   1.1072   1.3398   1.3438   1.5775   1.6154   1.8669   1.8684
     1.9065   2.0046   2.0814   2.0912   2.1904   2.2811   2.3764   2.5088
     2.5180   2.9086   3.0312   3.0583   3.1090   3.3269   3.3587   3.4227

          k = 0.0000 0.2637 0.0000 ( 14926 PWs)   bands (ev):

   -59.9673 -59.9654 -59.9565 -59.9546 -34.0056 -34.0032 -33.9979 -33.9923
   -33.9092 -33.8558 -33.8297 -33.7999 -33.7975 -33.7789 -33.7658 -33.7633
   -13.4687 -13.3558 -12.3877 -12.2969 -12.2360 -12.1791 -11.8234 -11.8006
   -11.6241 -11.5990  -0.4635  -0.4501  -0.3956  -0.2925  -0.2380   0.0387
     0.2939   0.4747   0.5180   0.6648   1.1627   1.3048   1.3621   1.8064
     1.8612   2.0685   2.2186   2.3154   2.4792   2.5462   2.6866   2.7941
     3.0399   3.0472   3.0919   3.2092   3.2279   3.5074   3.5799   3.7213

          k = 0.3333 0.0000 0.0000 ( 14867 PWs)   bands (ev):

   -59.9629 -59.9609 -59.9575 -59.9555 -33.9980 -33.9956 -33.9923 -33.9881
   -33.9060 -33.8787 -33.8657 -33.8561 -33.8098 -33.8044 -33.7887 -33.7779
   -12.9633 -12.8220 -12.3483 -12.1834 -12.1732 -12.1482 -11.7536 -11.7434
   -11.7113 -11.6692  -0.9245  -0.8477  -0.0966  -0.0921   0.0318   0.3628
     0.4902   0.8728   0.8790   1.1783   1.2130   1.2506   1.6187   1.7543
     1.7651   1.9304   2.0080   2.0270   2.1091   2.1741   2.2667   2.3144
     2.3496   2.7499   3.0364   3.1207   3.2042   3.3927   3.5714   3.6381

          k = 0.3333 0.2637 0.0000 ( 14912 PWs)   bands (ev):

   -59.9629 -59.9609 -59.9575 -59.9555 -34.0000 -33.9975 -33.9951 -33.9907
   -33.9056 -33.8784 -33.8653 -33.8559 -33.8098 -33.8044 -33.7887 -33.7780
   -12.9001 -12.7749 -12.3071 -12.1802 -12.1570 -12.1323 -11.7406 -11.7210
   -11.6430 -11.6251  -0.9267  -0.8481  -0.1669  -0.1581  -0.0900   0.1611
     0.2640   0.4009   0.4484   0.6779   0.7354   0.9535   1.2980   1.3242
     1.4350   1.4742   1.5994   1.6935   1.8569   2.2992   2.5227   2.7173
     2.9884   2.9956   3.3777   3.5707   3.5989   3.7557   3.8006   3.8060

     highest occupied level (ev):     3.8060

!    total energy              =    -922.12634456 Ry
     Harris-Foulkes estimate   =    -922.12634456 Ry
     estimated scf accuracy    <          1.0E-13 Ry

     The total energy is the sum of the following terms:

     one-electron contribution =    -591.11704120 Ry
     hartree contribution      =     334.91169483 Ry
     xc contribution           =    -174.09904089 Ry
     ewald contribution        =    -491.69138839 Ry
     Dispersion Correction     =      -0.13056891 Ry

     convergence has been achieved in  26 iterations

     Writing output data file v2o5.save/

     init_run     :      1.57s CPU      1.60s WALL (       1 calls)
     electrons    :     26.82s CPU     27.41s WALL (       1 calls)

     Called by init_run:
     wfcinit      :      0.34s CPU      0.34s WALL (       1 calls)
     potinit      :      0.36s CPU      0.36s WALL (       1 calls)
     hinit0       :      0.69s CPU      0.69s WALL (       1 calls)

     Called by electrons:
     c_bands      :     24.61s CPU     25.02s WALL (      26 calls)
     sum_band     :      1.21s CPU      1.25s WALL (      26 calls)
     v_of_rho     :      0.71s CPU      0.80s WALL (      27 calls)
     mix_rho      :      0.14s CPU      0.16s WALL (      26 calls)

     Called by c_bands:
     init_us_2    :      0.22s CPU      0.23s WALL (     212 calls)
     cegterg      :     23.85s CPU     24.22s WALL (     104 calls)

     Called by sum_band:

     Called by *egterg:
     h_psi        :     12.21s CPU     12.43s WALL (     499 calls)
     g_psi        :      0.04s CPU      0.04s WALL (     391 calls)
     cdiaghg      :      4.67s CPU      4.78s WALL (     495 calls)

     Called by h_psi:
     h_psi:pot    :     12.16s CPU     12.38s WALL (     499 calls)
     h_psi:calbec :      4.04s CPU      4.12s WALL (     499 calls)
     vloc_psi     :      5.22s CPU      5.36s WALL (     499 calls)
     add_vuspsi   :      2.89s CPU      2.89s WALL (     499 calls)

     General routines
     calbec       :      4.04s CPU      4.12s WALL (     499 calls)
     fft          :      0.50s CPU      0.56s WALL (     322 calls)
     ffts         :      0.02s CPU      0.02s WALL (      53 calls)
     fftw         :      5.60s CPU      5.74s WALL (   38584 calls)
     interpolate  :      0.06s CPU      0.06s WALL (      27 calls)

     Parallel routines
     fft_scatt_xy :      0.42s CPU      0.44s WALL (   38959 calls)
     fft_scatt_yz :      3.49s CPU      3.62s WALL (   38959 calls)

     PWSCF        :     28.73s CPU     29.48s WALL


   This run was terminated on:   1:40:45  13Oct2024            

=------------------------------------------------------------------------------=
   JOB DONE.
=------------------------------------------------------------------------------=
