
     Program PWSCF v.6.4.1 starts on  6Jun2024 at 18:29:57 

     This program is part of the open-source Quantum ESPRESSO suite
     for quantum simulation of materials; please cite
         "P. Giannozzi et al., J. Phys.:Condens. Matter 21 395502 (2009);
         "P. Giannozzi et al., J. Phys.:Condens. Matter 29 465901 (2017);
          URL http://www.quantum-espresso.org", 
     in publications or presentations arising from this work. More details at
     http://www.quantum-espresso.org/quote

     Parallel version (MPI), running on    32 processors

     MPI processes distributed on     1 nodes
     R & G space division:  proc/nbgrp/npool/nimage =      32
     Reading input from v16o39.rlx.in

     Current dimensions of program PWSCF are:
     Max number of different atomic species (ntypx) = 10
     Max number of k-points (npk) =  40000
     Max angular momentum in pseudopotentials (lmaxx) =  3

     Atomic positions and unit cell read from directory:
     outdir/ovac1.save/

     Message from routine readpp:
     file outdir/ovac1.save/V.pbe-spnl-kjpaw_psl.1.0.0.UPF not found
     Message from routine readpp:
     file outdir/ovac1.save/O.pbe-n-kjpaw_psl.1.0.0.UPF not found
               file V.pbe-spnl-kjpaw_psl.1.0.0.UPF: wavefunction(s)  3P 3D renormalized
               file O.pbe-n-kjpaw_psl.1.0.0.UPF: wavefunction(s)  2S 2P renormalized

     -------------------------------------------------
     Parameters for Dispersion (Grimme-D2) Correction:
     -------------------------------------------------
       atom      VdW radius       C_6     

        V          2.952        374.666
        O          2.536         24.284

     Subspace diagonalization in iterative solution of the eigenvalue problem:
     one sub-group per band group will be used
     ELPA distributed-memory algorithm (size of sub-group:  4*  4 procs)


     Parallelization info
     --------------------
     sticks:   dense  smooth     PW     G-vecs:    dense   smooth      PW
     Min         363     145     39                42943    10863    1531
     Max         367     146     40                42945    10870    1534
     Sum       11627    4657   1261              1374195   347715   49027



     bravais-lattice index     =            8
     lattice parameter (alat)  =      13.5232  a.u.
     unit-cell volume          =    4911.3436 (a.u.)^3
     number of atoms/cell      =           55
     number of atomic types    =            2
     number of electrons       =       442.00
     number of Kohn-Sham states=          265
     kinetic-energy cutoff     =      65.0000  Ry
     charge density cutoff     =     650.0000  Ry
     convergence threshold     =      1.0E-10
     mixing beta               =       0.7000
     number of iterations used =            8  plain     mixing
     Exchange-correlation      = SLA PW PBX PBC ( 1  4  3  4 0 0)
     nstep                     =          500


     celldm(1)=  13.523246  celldm(2)=   1.231081  celldm(3)=   1.613135
     celldm(4)=   0.000000  celldm(5)=   0.000000  celldm(6)=   0.000000

     crystal axes: (cart. coord. in units of alat)
               a(1) = (   1.000000   0.000000   0.000000 )  
               a(2) = (   0.000000   1.231081   0.000000 )  
               a(3) = (   0.000000   0.000000   1.613135 )  

     reciprocal axes: (cart. coord. in units 2 pi/alat)
               b(1) = (  1.000000  0.000000  0.000000 )  
               b(2) = (  0.000000  0.812294  0.000000 )  
               b(3) = (  0.000000  0.000000  0.619911 )  


     PseudoPot. # 1 for V  read from file:
     /home/mpicuntureo/pseudos/V.pbe-spnl-kjpaw_psl.1.0.0.UPF
     MD5 check sum: 069c5df6a0a9f40a694a86a6cab52b89
     Pseudo is Projector augmented-wave + core cor, Zval = 13.0
     Generated using "atomic" code by A. Dal Corso v.6.3
     Shape of augmentation charge: PSQ
     Using radial grid of 1181 points,  6 beta functions with: 
                l(1) =   0
                l(2) =   0
                l(3) =   1
                l(4) =   1
                l(5) =   2
                l(6) =   2
     Q(r) pseudized with 0 coefficients 


     PseudoPot. # 2 for O  read from file:
     /home/mpicuntureo/pseudos/O.pbe-n-kjpaw_psl.1.0.0.UPF
     MD5 check sum: e99d9cef9b487d1ca56f5b95ecd0fd7a
     Pseudo is Projector augmented-wave + core cor, Zval =  6.0
     Generated using "atomic" code by A. Dal Corso v.6.3
     Shape of augmentation charge: PSQ
     Using radial grid of 1095 points,  4 beta functions with: 
                l(1) =   0
                l(2) =   0
                l(3) =   1
                l(4) =   1
     Q(r) pseudized with 0 coefficients 


     atomic species   valence    mass     pseudopotential
        V             13.00    50.94150     V ( 1.00)
        O              6.00    15.99940     O ( 1.00)


     Simplified LDA+U calculation (l_max = 2) with parameters (eV):
     atomic species    L          U    alpha       J0     beta
        V              2     4.0000   0.0000   0.0000   0.0000



      2 Sym. Ops. (no inversion) found ( 1 have fractional translation)



   Cartesian axes

     site n.     atom                  positions (alat units)
         1           V   tau(   1) = (  -0.0004010   0.2334758   1.0470264  )
         2           V   tau(   2) = (   0.2500000   0.3841442   1.3692691  )
         3           V   tau(   3) = (   0.2500000   0.3820100   0.2386917  )
         4           V   tau(   4) = (   0.0007547   0.2320828   0.5644637  )
         5           O   tau(   5) = (   0.2500000   0.3046578   1.0969932  )
         6           O   tau(   6) = (  -0.0006793   0.3136983   1.3201610  )
         7           O   tau(   7) = (  -0.0014728   0.3136713   0.2910395  )
         8           O   tau(   8) = (   0.2500000   0.2995540   0.5110307  )
         9           O   tau(   9) = (   0.0037082   0.0090584   0.5651379  )
        10           O   tau(  10) = (   0.2500000   0.6049023   0.2391472  )
        11           O   tau(  11) = (   0.2500000   0.6065425   1.3680386  )
        12           O   tau(  12) = (   0.2500000   0.3187868  -0.0022562  )
        13           O   tau(  13) = (  -0.0005888   0.2982414   0.8055107  )
        14           O   tau(  14) = (  -0.0006747   0.0108238   1.0471093  )
        15           V   tau(  15) = (  -0.0007985   0.8576036   1.0442535  )
        16           V   tau(  16) = (   0.2500000   0.9977863   1.3621918  )
        17           V   tau(  17) = (   0.2500000   0.9974882   0.2200849  )
        18           V   tau(  18) = (  -0.0046716   0.8433693   0.5732180  )
        19           O   tau(  19) = (   0.2500000   0.9236495   1.0995811  )
        20           O   tau(  20) = (  -0.0020310   0.9255407   1.3189963  )
        21           O   tau(  21) = (   0.0195479   0.9282642   0.3163821  )
        22           O   tau(  22) = (   0.0267492   0.6231686   0.5768121  )
        23           O   tau(  23) = (   0.2500000   1.2204086   0.2176966  )
        24           O   tau(  24) = (   0.2500000   1.2193444   1.3746739  )
        25           O   tau(  25) = (   0.2500000   0.9195497  -0.0089043  )
        26           O   tau(  26) = (   0.0313330   0.9282324   0.8007330  )
        27           O   tau(  27) = (  -0.0047691   0.6358996   1.0357639  )
        28           V   tau(  28) = (   0.5004010   0.2334759   1.0470264  )
        29           V   tau(  29) = (   0.7500000   0.3857784   1.3714309  )
        30           V   tau(  30) = (   0.7500000   0.3886979   0.2428124  )
        31           V   tau(  31) = (   0.4992453   0.2320829   0.5644637  )
        32           O   tau(  32) = (   0.7500000   0.3050976   1.0981402  )
        33           O   tau(  33) = (   0.5006793   0.3136983   1.3201610  )
        34           O   tau(  34) = (   0.5014728   0.3136713   0.2910395  )
        35           O   tau(  35) = (   0.7500000   0.3031679   0.5138571  )
        36           O   tau(  36) = (   0.4962918   0.0090585   0.5651379  )
        37           O   tau(  37) = (   0.7500000   0.6131075   0.2485453  )
        38           O   tau(  38) = (   0.7500000   0.6085470   1.3695576  )
        39           O   tau(  39) = (   0.7500000   0.3237886   0.0018448  )
        40           O   tau(  40) = (   0.5005888   0.2982415   0.8055107  )
        41           O   tau(  41) = (   0.5006747   0.0108239   1.0471093  )
        42           V   tau(  42) = (   0.5007985   0.8576036   1.0442535  )
        43           V   tau(  43) = (   0.7500000   0.9926214   1.3753870  )
        44           V   tau(  44) = (   0.7500000   0.9794908   0.2486600  )
        45           V   tau(  45) = (   0.5046716   0.8433693   0.5732181  )
        46           O   tau(  46) = (   0.7500000   0.9300929   1.0861216  )
        47           O   tau(  47) = (   0.5020310   0.9255407   1.3189963  )
        48           O   tau(  48) = (   0.4804521   0.9282643   0.3163821  )
        49           O   tau(  49) = (   0.7500000   0.8975435   0.5283118  )
        50           O   tau(  50) = (   0.4732508   0.6231687   0.5768121  )
        51           O   tau(  51) = (   0.7500000   1.2007992   0.2494514  )
        52           O   tau(  52) = (   0.7500000   1.2142056   1.3849943  )
        53           O   tau(  53) = (   0.7500000   0.9234002   0.0090072  )
        54           O   tau(  54) = (   0.4686670   0.9282325   0.8007330  )
        55           O   tau(  55) = (   0.5047691   0.6358997   1.0357639  )

     number of k points=     8  gaussian smearing, width (Ry)=  0.0500
                       cart. coord. in units 2pi/alat
        k(    1) = (   0.0000000   0.0000000   0.0000000), wk =   0.2500000
        k(    2) = (   0.0000000   0.0000000  -0.3099554), wk =   0.2500000
        k(    3) = (   0.0000000  -0.4061470   0.0000000), wk =   0.2500000
        k(    4) = (   0.0000000  -0.4061470  -0.3099554), wk =   0.2500000
        k(    5) = (  -0.5000000   0.0000000   0.0000000), wk =   0.2500000
        k(    6) = (  -0.5000000   0.0000000  -0.3099554), wk =   0.2500000
        k(    7) = (  -0.5000000  -0.4061470   0.0000000), wk =   0.2500000
        k(    8) = (  -0.5000000  -0.4061470  -0.3099554), wk =   0.2500000

     Dense  grid:  1374195 G-vectors     FFT dimensions: ( 120, 135, 180)

     Smooth grid:   347715 G-vectors     FFT dimensions: (  72,  90, 120)

     Estimated max dynamical RAM per process >     340.41 MB

     Estimated total dynamical RAM >      10.64 GB

     Check: negative core charge=   -0.000001

     The initial density is read from file :
     outdir/ovac1.save/charge-density


     negative rho (up, down):  1.322E-03 0.000E+00
     Number of +U iterations with fixed ns =  0
     Starting occupations:
 --- enter write_ns ---
 LDA+U parameters:
U( 1)     =  4.00000000
alpha( 1) =  0.00000000
atom    1   Tr[ns(na)] =   4.57397
    eigenvalues: 
  0.316  0.469  0.470  0.490  0.542
    eigenvectors:
  0.000  0.000  0.130  0.548  0.323
  0.999  0.001  0.000  0.000  0.000
  0.000  0.004  0.773  0.220  0.003
  0.000  0.000  0.094  0.232  0.674
  0.001  0.995  0.003  0.001  0.000
    occupations:
  0.504 -0.000  0.004  0.027  0.000
 -0.000  0.316  0.000  0.001  0.005
  0.004  0.000  0.475 -0.007  0.000
  0.027  0.001 -0.007  0.523 -0.000
  0.000  0.005  0.000 -0.000  0.469
atom    2   Tr[ns(na)] =   4.57690
    eigenvalues: 
  0.312  0.469  0.472  0.491  0.545
    eigenvectors:
  0.000  0.000  0.130  0.558  0.312
  0.998  0.002  0.000  0.000  0.000
  0.000  0.000  0.769  0.226  0.005
  0.000  0.000  0.101  0.216  0.684
  0.002  0.998  0.000  0.000  0.000
    occupations:
  0.505 -0.000  0.004  0.027  0.000
 -0.000  0.312 -0.000  0.000  0.007
  0.004 -0.000  0.477 -0.008  0.000
  0.027  0.000 -0.008  0.526 -0.000
  0.000  0.007  0.000 -0.000  0.469
atom    3   Tr[ns(na)] =   4.57266
    eigenvalues: 
  0.320  0.464  0.470  0.489  0.543
    eigenvectors:
  0.000  0.000  0.149  0.525  0.326
  0.998  0.002  0.000  0.000  0.000
  0.000  0.000  0.738  0.258  0.004
  0.000  0.000  0.113  0.217  0.670
  0.002  0.998  0.000  0.000  0.000
    occupations:
  0.504 -0.000 -0.004  0.027  0.000
 -0.000  0.321 -0.000  0.000 -0.006
 -0.004 -0.000  0.475  0.008  0.000
  0.027  0.000  0.008  0.523 -0.000
  0.000 -0.006  0.000 -0.000  0.464
atom    4   Tr[ns(na)] =   4.57374
    eigenvalues: 
  0.318  0.465  0.471  0.489  0.543
    eigenvectors:
  0.000  0.008  0.150  0.544  0.299
  0.998  0.001  0.001  0.000  0.000
  0.000  0.005  0.742  0.250  0.003
  0.000  0.001  0.097  0.205  0.697
  0.001  0.985  0.011  0.002  0.001
    occupations:
  0.502 -0.000 -0.005  0.027  0.002
 -0.000  0.319 -0.003  0.002 -0.005
 -0.005 -0.003  0.476  0.007 -0.000
  0.027  0.002  0.007  0.525  0.001
  0.002 -0.005 -0.000  0.001  0.465
atom   15   Tr[ns(na)] =   4.56712
    eigenvalues: 
  0.311  0.470  0.474  0.483  0.546
    eigenvectors:
  0.010  0.084  0.035  0.622  0.249
  0.989  0.000  0.001  0.009  0.001
  0.001  0.688  0.162  0.149  0.000
  0.000  0.020  0.014  0.216  0.749
  0.001  0.208  0.788  0.003  0.000
    occupations:
  0.495  0.018  0.004  0.029 -0.000
  0.018  0.313  0.006 -0.001 -0.004
  0.004  0.006  0.472 -0.001  0.002
  0.029 -0.001 -0.001  0.530 -0.001
 -0.000 -0.004  0.002 -0.001  0.473
atom   16   Tr[ns(na)] =   4.57221
    eigenvalues: 
  0.297  0.474  0.482  0.488  0.545
    eigenvectors:
  0.000  0.000  0.040  0.650  0.310
  1.000  0.000  0.000  0.000  0.000
  0.000  0.000  0.921  0.076  0.003
  0.000  0.000  0.039  0.274  0.687
  0.000  1.000  0.000  0.000  0.000
    occupations:
  0.506 -0.000  0.000  0.026  0.000
 -0.000  0.297 -0.000  0.000 -0.003
  0.000 -0.000  0.482  0.004  0.000
  0.026  0.000  0.004  0.527 -0.000
  0.000 -0.003  0.000 -0.000  0.474
atom   17   Tr[ns(na)] =   4.61906
    eigenvalues: 
  0.377  0.434  0.472  0.491  0.537
    eigenvectors:
  0.000  0.482  0.000  0.180  0.338
  0.993  0.000  0.007  0.000  0.000
  0.000  0.264  0.000  0.736  0.000
  0.000  0.254  0.000  0.084  0.661
  0.007  0.000  0.993  0.000  0.000
    occupations:
  0.479 -0.000 -0.020  0.042  0.000
 -0.000  0.377 -0.000  0.000  0.008
 -0.020 -0.000  0.475  0.015  0.000
  0.042  0.000  0.015  0.507 -0.000
  0.000  0.008  0.000 -0.000  0.471
atom   18   Tr[ns(na)] =   4.56727
    eigenvalues: 
  0.322  0.456  0.472  0.493  0.541
    eigenvectors:
  0.011  0.003  0.438  0.038  0.510
  0.962  0.000  0.009  0.021  0.009
  0.024  0.088  0.101  0.785  0.003
  0.002  0.052  0.405  0.111  0.430
  0.001  0.857  0.047  0.046  0.049
    occupations:
  0.506 -0.019 -0.008  0.030  0.013
 -0.019  0.329 -0.025 -0.013  0.004
 -0.008 -0.025  0.484  0.004 -0.008
  0.030 -0.013  0.004  0.503  0.012
  0.013  0.004 -0.008  0.012  0.463
atom   28   Tr[ns(na)] =   4.57397
    eigenvalues: 
  0.316  0.469  0.470  0.490  0.542
    eigenvectors:
  0.000  0.000  0.130  0.548  0.323
  0.999  0.001  0.000  0.000  0.000
  0.000  0.004  0.773  0.220  0.003
  0.000  0.000  0.094  0.232  0.674
  0.001  0.995  0.003  0.001  0.000
    occupations:
  0.504  0.000  0.004  0.027 -0.000
  0.000  0.316 -0.000 -0.001  0.005
  0.004 -0.000  0.475 -0.007 -0.000
  0.027 -0.001 -0.007  0.523  0.000
 -0.000  0.005 -0.000  0.000  0.469
atom   29   Tr[ns(na)] =   4.56847
    eigenvalues: 
  0.319  0.468  0.470  0.487  0.540
    eigenvectors:
  0.000  0.117  0.000  0.581  0.302
  0.999  0.000  0.001  0.000  0.000
  0.000  0.795  0.000  0.201  0.004
  0.000  0.088  0.000  0.219  0.694
  0.001  0.000  0.999  0.000  0.000
    occupations:
  0.501 -0.000  0.004  0.026  0.000
 -0.000  0.319 -0.000  0.000  0.005
  0.004 -0.000  0.472 -0.008  0.000
  0.026  0.000 -0.008  0.522 -0.000
  0.000  0.005  0.000 -0.000  0.469
atom   30   Tr[ns(na)] =   4.56724
    eigenvalues: 
  0.323  0.466  0.468  0.493  0.534
    eigenvectors:
  0.000  0.000  0.075  0.611  0.313
  0.994  0.006  0.000  0.000  0.000
  0.000  0.000  0.824  0.162  0.014
  0.000  0.000  0.101  0.226  0.673
  0.006  0.994  0.000  0.000  0.000
    occupations:
  0.504 -0.000 -0.004  0.021  0.000
 -0.000  0.324 -0.000  0.000 -0.011
 -0.004 -0.000  0.473  0.011  0.000
  0.021  0.000  0.011  0.518 -0.000
  0.000 -0.011  0.000 -0.000  0.465
atom   31   Tr[ns(na)] =   4.57374
    eigenvalues: 
  0.318  0.465  0.471  0.489  0.543
    eigenvectors:
  0.000  0.008  0.150  0.544  0.299
  0.998  0.001  0.001  0.000  0.000
  0.000  0.005  0.742  0.250  0.003
  0.000  0.001  0.097  0.205  0.697
  0.001  0.985  0.011  0.002  0.001
    occupations:
  0.502  0.000 -0.005  0.027 -0.002
  0.000  0.319  0.003 -0.002 -0.005
 -0.005  0.003  0.476  0.007  0.000
  0.027 -0.002  0.007  0.525 -0.001
 -0.002 -0.005  0.000 -0.001  0.465
atom   42   Tr[ns(na)] =   4.56712
    eigenvalues: 
  0.311  0.470  0.474  0.483  0.546
    eigenvectors:
  0.010  0.084  0.035  0.622  0.249
  0.989  0.000  0.001  0.009  0.001
  0.001  0.688  0.162  0.149  0.000
  0.000  0.020  0.014  0.216  0.749
  0.001  0.208  0.788  0.003  0.000
    occupations:
  0.495 -0.018  0.004  0.029  0.000
 -0.018  0.313 -0.006  0.001 -0.004
  0.004 -0.006  0.472 -0.001 -0.002
  0.029  0.001 -0.001  0.530  0.001
  0.000 -0.004 -0.002  0.001  0.473
atom   43   Tr[ns(na)] =   4.55564
    eigenvalues: 
  0.338  0.453  0.471  0.472  0.544
    eigenvectors:
  0.000  0.296  0.491  0.000  0.213
  1.000  0.000  0.000  0.000  0.000
  0.000  0.636  0.364  0.000  0.001
  0.000  0.069  0.145  0.000  0.786
  0.000  0.000  0.000  1.000  0.000
    occupations:
  0.481 -0.000  0.008  0.033  0.000
 -0.000  0.338 -0.000  0.000 -0.002
  0.008 -0.000  0.460 -0.002  0.000
  0.033  0.000 -0.002  0.527 -0.000
  0.000 -0.002  0.000 -0.000  0.471
atom   44   Tr[ns(na)] =   4.53792
    eigenvalues: 
  0.367  0.428  0.447  0.478  0.548
    eigenvectors:
  0.000  0.517  0.000  0.042  0.440
  0.939  0.000  0.061  0.000  0.000
  0.000  0.066  0.000  0.934  0.000
  0.000  0.417  0.000  0.024  0.559
  0.061  0.000  0.939  0.000  0.000
    occupations:
  0.483 -0.000 -0.008  0.058  0.000
 -0.000  0.372 -0.000  0.000 -0.019
 -0.008 -0.000  0.475  0.009  0.000
  0.058  0.000  0.009  0.497 -0.000
  0.000 -0.019  0.000 -0.000  0.442
atom   45   Tr[ns(na)] =   4.56727
    eigenvalues: 
  0.322  0.456  0.472  0.493  0.541
    eigenvectors:
  0.011  0.003  0.438  0.038  0.510
  0.962  0.000  0.009  0.021  0.009
  0.024  0.088  0.101  0.785  0.003
  0.002  0.052  0.405  0.111  0.430
  0.001  0.857  0.047  0.046  0.049
    occupations:
  0.506  0.019 -0.008  0.030 -0.013
  0.019  0.329  0.025  0.013  0.004
 -0.008  0.025  0.484  0.004  0.008
  0.030  0.013  0.004  0.503 -0.012
 -0.013  0.004  0.008 -0.012  0.463
N of occupied +U levels =   73.134309
 --- exit write_ns ---
 Atomic wfc used for LDA+U Projector are NOT orthogonalized
     Cannot read wfcs: file not found
     Starting wfcs are  316 randomized atomic wfcs
     Checking if some PAW data can be deallocated... 

     total cpu time spent up to now is      136.3 secs

     Self-consistent Calculation

     iteration #  1     ecut=    65.00 Ry     beta= 0.70
     CG style diagonalization
     c_bands:  4 eigenvalues not converged
     c_bands:  4 eigenvalues not converged
     ethr =  1.00E-05,  avg # of iterations = 15.5
 --- enter write_ns ---
 LDA+U parameters:
U( 1)     =  4.00000000
alpha( 1) =  0.00000000
atom    1   Tr[ns(na)] =   4.56898
    eigenvalues: 
  0.320  0.467  0.471  0.488  0.538
    eigenvectors:
  0.000  0.001  0.137  0.522  0.341
  0.998  0.002  0.000  0.000  0.000
  0.000  0.000  0.754  0.243  0.004
  0.000  0.001  0.109  0.235  0.656
  0.002  0.997  0.001  0.001  0.000
    occupations:
  0.503 -0.001  0.004  0.025  0.000
 -0.001  0.321  0.000  0.001  0.006
  0.004  0.000  0.475 -0.007  0.000
  0.025  0.001 -0.007  0.519 -0.000
  0.000  0.006  0.000 -0.000  0.467
atom    2   Tr[ns(na)] =   4.58522
    eigenvalues: 
  0.316  0.470  0.474  0.490  0.542
    eigenvectors:
  0.000  0.000  0.166  0.513  0.321
  0.998  0.002  0.000  0.000  0.000
  0.000  0.000  0.701  0.293  0.007
  0.000  0.000  0.133  0.194  0.673
  0.002  0.998  0.000  0.000  0.000
    occupations:
  0.504 -0.000  0.003  0.027  0.000
 -0.000  0.317 -0.000  0.000  0.007
  0.003 -0.000  0.479 -0.008  0.000
  0.027  0.000 -0.008  0.523 -0.000
  0.000  0.007  0.000 -0.000  0.470
atom    3   Tr[ns(na)] =   4.55032
    eigenvalues: 
  0.320  0.462  0.469  0.487  0.537
    eigenvectors:
  0.000  0.000  0.124  0.544  0.332
  0.998  0.002  0.000  0.000  0.000
  0.000  0.000  0.769  0.226  0.005
  0.000  0.000  0.107  0.230  0.663
  0.002  0.998  0.000  0.000  0.000
    occupations:
  0.501 -0.000 -0.003  0.026  0.000
 -0.000  0.321 -0.000  0.000 -0.007
 -0.003 -0.000  0.474  0.008  0.000
  0.026  0.000  0.008  0.518 -0.000
  0.000 -0.007  0.000 -0.000  0.461
atom    4   Tr[ns(na)] =   4.55864
    eigenvalues: 
  0.318  0.465  0.471  0.487  0.538
    eigenvectors:
  0.000  0.004  0.184  0.512  0.299
  0.998  0.001  0.000  0.000  0.000
  0.000  0.001  0.695  0.300  0.003
  0.000  0.000  0.117  0.186  0.696
  0.001  0.993  0.004  0.001  0.001
    occupations:
  0.499 -0.000 -0.004  0.026  0.002
 -0.000  0.318 -0.003  0.002 -0.005
 -0.004 -0.003  0.476  0.007 -0.000
  0.026  0.002  0.007  0.521  0.001
  0.002 -0.005 -0.000  0.001  0.465
atom   15   Tr[ns(na)] =   4.57446
    eigenvalues: 
  0.315  0.472  0.475  0.482  0.544
    eigenvectors:
  0.010  0.106  0.087  0.538  0.259
  0.988  0.000  0.001  0.009  0.001
  0.001  0.502  0.245  0.251  0.000
  0.000  0.029  0.034  0.198  0.739
  0.000  0.363  0.632  0.005  0.000
    occupations:
  0.495  0.018  0.003  0.028 -0.001
  0.018  0.317  0.005 -0.001 -0.003
  0.003  0.005  0.475 -0.001  0.002
  0.028 -0.001 -0.001  0.527 -0.001
 -0.001 -0.003  0.002 -0.001  0.474
atom   16   Tr[ns(na)] =   4.57283
    eigenvalues: 
  0.305  0.472  0.481  0.488  0.540
    eigenvectors:
  0.000  0.000  0.059  0.616  0.325
  1.000  0.000  0.000  0.000  0.000
  0.000  0.000  0.892  0.106  0.002
  0.000  0.000  0.049  0.278  0.673
  0.000  1.000  0.000  0.000  0.000
    occupations:
  0.505 -0.000 -0.000  0.025  0.000
 -0.000  0.305 -0.000  0.000 -0.001
 -0.000 -0.000  0.482  0.003  0.000
  0.025  0.000  0.003  0.523 -0.000
  0.000 -0.001  0.000 -0.000  0.472
atom   17   Tr[ns(na)] =   4.63034
    eigenvalues: 
  0.376  0.433  0.476  0.492  0.538
    eigenvectors:
  0.000  0.538  0.000  0.134  0.327
  0.995  0.000  0.005  0.000  0.000
  0.000  0.182  0.000  0.817  0.001
  0.000  0.280  0.000  0.048  0.672
  0.005  0.000  0.995  0.000  0.000
    occupations:
  0.475 -0.000 -0.018  0.044  0.000
 -0.000  0.377 -0.000  0.000  0.007
 -0.018 -0.000  0.481  0.014  0.000
  0.044  0.000  0.014  0.506 -0.000
  0.000  0.007  0.000 -0.000  0.476
atom   18   Tr[ns(na)] =   4.54196
    eigenvalues: 
  0.321  0.456  0.466  0.492  0.537
    eigenvectors:
  0.010  0.023  0.441  0.029  0.496
  0.962  0.000  0.007  0.022  0.009
  0.024  0.069  0.091  0.814  0.001
  0.003  0.022  0.454  0.080  0.442
  0.001  0.886  0.006  0.054  0.052
    occupations:
  0.500 -0.018 -0.007  0.031  0.014
 -0.018  0.328 -0.026 -0.013  0.004
 -0.007 -0.026  0.483  0.005 -0.008
  0.031 -0.013  0.005  0.499  0.011
  0.014  0.004 -0.008  0.011  0.462
atom   28   Tr[ns(na)] =   4.56898
    eigenvalues: 
  0.320  0.467  0.471  0.488  0.538
    eigenvectors:
  0.000  0.001  0.137  0.522  0.341
  0.998  0.002  0.000  0.000  0.000
  0.000  0.000  0.754  0.243  0.004
  0.000  0.001  0.109  0.235  0.656
  0.002  0.997  0.001  0.001  0.000
    occupations:
  0.503  0.001  0.004  0.025 -0.000
  0.001  0.321 -0.000 -0.001  0.006
  0.004 -0.000  0.475 -0.007 -0.000
  0.025 -0.001 -0.007  0.519  0.000
 -0.000  0.006 -0.000  0.000  0.467
atom   29   Tr[ns(na)] =   4.56907
    eigenvalues: 
  0.324  0.469  0.469  0.486  0.536
    eigenvectors:
  0.000  0.117  0.000  0.566  0.317
  0.998  0.000  0.002  0.000  0.000
  0.000  0.790  0.000  0.206  0.004
  0.000  0.093  0.000  0.228  0.679
  0.002  0.000  0.998  0.000  0.000
    occupations:
  0.500 -0.000  0.003  0.025  0.000
 -0.000  0.324 -0.000  0.000  0.007
  0.003 -0.000  0.473 -0.007  0.000
  0.025  0.000 -0.007  0.519 -0.000
  0.000  0.007  0.000 -0.000  0.469
atom   30   Tr[ns(na)] =   4.54714
    eigenvalues: 
  0.324  0.464  0.467  0.490  0.528
    eigenvectors:
  0.000  0.000  0.059  0.637  0.304
  0.994  0.006  0.000  0.000  0.000
  0.000  0.000  0.839  0.141  0.020
  0.000  0.000  0.102  0.222  0.677
  0.006  0.994  0.000  0.000  0.000
    occupations:
  0.500 -0.000 -0.002  0.019  0.000
 -0.000  0.325 -0.000  0.000 -0.011
 -0.002 -0.000  0.472  0.011  0.000
  0.019  0.000  0.011  0.514 -0.000
  0.000 -0.011  0.000 -0.000  0.463
atom   31   Tr[ns(na)] =   4.55864
    eigenvalues: 
  0.318  0.465  0.471  0.487  0.538
    eigenvectors:
  0.000  0.004  0.184  0.512  0.299
  0.998  0.001  0.000  0.000  0.000
  0.000  0.001  0.695  0.300  0.003
  0.000  0.000  0.117  0.186  0.696
  0.001  0.993  0.004  0.001  0.001
    occupations:
  0.499  0.000 -0.004  0.026 -0.002
  0.000  0.318  0.003 -0.002 -0.005
 -0.004  0.003  0.476  0.007  0.000
  0.026 -0.002  0.007  0.521 -0.001
 -0.002 -0.005  0.000 -0.001  0.465
atom   42   Tr[ns(na)] =   4.57446
    eigenvalues: 
  0.315  0.472  0.475  0.482  0.544
    eigenvectors:
  0.010  0.106  0.087  0.538  0.259
  0.988  0.000  0.001  0.009  0.001
  0.001  0.502  0.245  0.251  0.000
  0.000  0.029  0.034  0.198  0.739
  0.000  0.363  0.632  0.005  0.000
    occupations:
  0.495 -0.018  0.003  0.028  0.001
 -0.018  0.317 -0.005  0.001 -0.003
  0.003 -0.005  0.475 -0.001 -0.002
  0.028  0.001 -0.001  0.527  0.001
  0.001 -0.003 -0.002  0.001  0.474
atom   43   Tr[ns(na)] =   4.57785
    eigenvalues: 
  0.350  0.455  0.470  0.472  0.541
    eigenvectors:
  0.000  0.314  0.468  0.000  0.218
  1.000  0.000  0.000  0.000  0.000
  0.000  0.607  0.393  0.000  0.000
  0.000  0.079  0.140  0.000  0.782
  0.000  0.000  0.000  1.000  0.000
    occupations:
  0.481 -0.000  0.007  0.032  0.000
 -0.000  0.350 -0.000  0.000  0.001
  0.007 -0.000  0.461 -0.002  0.000
  0.032  0.000 -0.002  0.524 -0.000
  0.000  0.001  0.000 -0.000  0.472
atom   44   Tr[ns(na)] =   4.57754
    eigenvalues: 
  0.374  0.430  0.454  0.482  0.548
    eigenvectors:
  0.000  0.542  0.000  0.034  0.424
  0.944  0.000  0.056  0.000  0.000
  0.000  0.044  0.000  0.954  0.002
  0.000  0.414  0.000  0.012  0.574
  0.056  0.000  0.944  0.000  0.000
    occupations:
  0.482 -0.000 -0.006  0.057  0.000
 -0.000  0.379 -0.000  0.000 -0.018
 -0.006 -0.000  0.480  0.009  0.000
  0.057  0.000  0.009  0.498 -0.000
  0.000 -0.018  0.000 -0.000  0.450
atom   45   Tr[ns(na)] =   4.54196
    eigenvalues: 
  0.321  0.456  0.466  0.492  0.537
    eigenvectors:
  0.010  0.023  0.441  0.029  0.496
  0.962  0.000  0.007  0.022  0.009
  0.024  0.069  0.091  0.814  0.001
  0.003  0.022  0.454  0.080  0.442
  0.001  0.886  0.006  0.054  0.052
    occupations:
  0.500  0.018 -0.007  0.031 -0.014
  0.018  0.328  0.026  0.013  0.004
 -0.007  0.026  0.483  0.005  0.008
  0.031  0.013  0.005  0.499 -0.011
 -0.014  0.004  0.008 -0.011  0.462
N of occupied +U levels =   73.098408
 --- exit write_ns ---

     negative rho (up, down):  1.080E-03 0.000E+00

     total cpu time spent up to now is     2041.7 secs

     total energy              =   -5047.62118463 Ry
     Harris-Foulkes estimate   =   -5047.64226135 Ry
     estimated scf accuracy    <       0.02697248 Ry

     iteration #  2     ecut=    65.00 Ry     beta= 0.70
     CG style diagonalization
     ethr =  6.10E-06,  avg # of iterations =  7.1

     negative rho (up, down):  1.043E-03 0.000E+00

     total cpu time spent up to now is     2888.5 secs

     total energy              =   -5047.64389170 Ry
     Harris-Foulkes estimate   =   -5047.73738524 Ry
     estimated scf accuracy    <       0.45576390 Ry

     iteration #  3     ecut=    65.00 Ry     beta= 0.70
     CG style diagonalization
     ethr =  6.10E-06,  avg # of iterations =  4.7

     negative rho (up, down):  1.160E-03 0.000E+00

     total cpu time spent up to now is     3432.3 secs

     total energy              =   -5047.68731848 Ry
     Harris-Foulkes estimate   =   -5047.69761788 Ry
     estimated scf accuracy    <       0.03737294 Ry

     iteration #  4     ecut=    65.00 Ry     beta= 0.70
     CG style diagonalization
     ethr =  6.10E-06,  avg # of iterations =  3.5

     negative rho (up, down):  1.215E-03 0.000E+00

     total cpu time spent up to now is     3836.2 secs

     total energy              =   -5047.69463399 Ry
     Harris-Foulkes estimate   =   -5047.69760488 Ry
     estimated scf accuracy    <       0.01307150 Ry

     iteration #  5     ecut=    65.00 Ry     beta= 0.70
     CG style diagonalization
     ethr =  2.96E-06,  avg # of iterations =  3.8

     negative rho (up, down):  1.276E-03 0.000E+00

     total cpu time spent up to now is     4274.5 secs

     total energy              =   -5047.69786676 Ry
     Harris-Foulkes estimate   =   -5047.70010848 Ry
     estimated scf accuracy    <       0.01023388 Ry

     iteration #  6     ecut=    65.00 Ry     beta= 0.70
     CG style diagonalization
     ethr =  2.32E-06,  avg # of iterations =  3.6

     negative rho (up, down):  1.296E-03 0.000E+00

     total cpu time spent up to now is     4695.0 secs

     total energy              =   -5047.70068972 Ry
     Harris-Foulkes estimate   =   -5047.70146651 Ry
     estimated scf accuracy    <       0.00382341 Ry

     iteration #  7     ecut=    65.00 Ry     beta= 0.70
     CG style diagonalization
     ethr =  8.65E-07,  avg # of iterations =  4.6

     negative rho (up, down):  1.324E-03 0.000E+00

     total cpu time spent up to now is     5241.1 secs

     total energy              =   -5047.70309944 Ry
     Harris-Foulkes estimate   =   -5047.70341978 Ry
     estimated scf accuracy    <       0.00126515 Ry

     iteration #  8     ecut=    65.00 Ry     beta= 0.70
     CG style diagonalization
     ethr =  2.86E-07,  avg # of iterations =  5.7

     negative rho (up, down):  1.336E-03 0.000E+00

     total cpu time spent up to now is     5930.8 secs

     total energy              =   -5047.70539542 Ry
     Harris-Foulkes estimate   =   -5047.70556352 Ry
     estimated scf accuracy    <       0.00083750 Ry

     iteration #  9     ecut=    65.00 Ry     beta= 0.70
     CG style diagonalization
     ethr =  1.89E-07,  avg # of iterations =  4.9

     negative rho (up, down):  1.340E-03 0.000E+00

     total cpu time spent up to now is     6510.8 secs

     total energy              =   -5047.70616500 Ry
     Harris-Foulkes estimate   =   -5047.70624148 Ry
     estimated scf accuracy    <       0.00047889 Ry

     iteration # 10     ecut=    65.00 Ry     beta= 0.70
     CG style diagonalization
     ethr =  1.08E-07,  avg # of iterations =  4.8

     negative rho (up, down):  1.340E-03 0.000E+00

     total cpu time spent up to now is     7073.8 secs

     total energy              =   -5047.70670352 Ry
     Harris-Foulkes estimate   =   -5047.70662686 Ry
     estimated scf accuracy    <       0.00018040 Ry

     iteration # 11     ecut=    65.00 Ry     beta= 0.70
     CG style diagonalization
     ethr =  4.08E-08,  avg # of iterations =  5.8

     negative rho (up, down):  1.318E-03 0.000E+00

     total cpu time spent up to now is     7765.6 secs

     total energy              =   -5047.70712524 Ry
     Harris-Foulkes estimate   =   -5047.70708559 Ry
     estimated scf accuracy    <       0.00006768 Ry

     iteration # 12     ecut=    65.00 Ry     beta= 0.70
     CG style diagonalization
     c_bands:  1 eigenvalues not converged
     c_bands:  1 eigenvalues not converged
     c_bands:  1 eigenvalues not converged
     c_bands:  1 eigenvalues not converged
     ethr =  1.53E-08,  avg # of iterations =  6.4

     negative rho (up, down):  1.309E-03 0.000E+00

     total cpu time spent up to now is     8528.3 secs

     total energy              =   -5047.70732544 Ry
     Harris-Foulkes estimate   =   -5047.70734875 Ry
     estimated scf accuracy    <       0.00012744 Ry

     iteration # 13     ecut=    65.00 Ry     beta= 0.70
     CG style diagonalization
     ethr =  1.53E-08,  avg # of iterations =  4.7

     negative rho (up, down):  1.308E-03 0.000E+00

     total cpu time spent up to now is     9081.2 secs

     total energy              =   -5047.70738502 Ry
     Harris-Foulkes estimate   =   -5047.70739808 Ry
     estimated scf accuracy    <       0.00001953 Ry

     iteration # 14     ecut=    65.00 Ry     beta= 0.70
     CG style diagonalization
     c_bands:  1 eigenvalues not converged
     ethr =  4.42E-09,  avg # of iterations =  6.4

     negative rho (up, down):  1.301E-03 0.000E+00

     total cpu time spent up to now is     9837.4 secs

     total energy              =   -5047.70743217 Ry
     Harris-Foulkes estimate   =   -5047.70744976 Ry
     estimated scf accuracy    <       0.00013676 Ry

     iteration # 15     ecut=    65.00 Ry     beta= 0.70
     CG style diagonalization
     ethr =  4.42E-09,  avg # of iterations =  4.8

     negative rho (up, down):  1.286E-03 0.000E+00

     total cpu time spent up to now is    10404.9 secs

     total energy              =   -5047.70745943 Ry
     Harris-Foulkes estimate   =   -5047.70746002 Ry
     estimated scf accuracy    <       0.00001346 Ry

     iteration # 16     ecut=    65.00 Ry     beta= 0.70
     CG style diagonalization
     ethr =  3.05E-09,  avg # of iterations =  4.6

     negative rho (up, down):  1.286E-03 0.000E+00

     total cpu time spent up to now is    10941.3 secs

     total energy              =   -5047.70746814 Ry
     Harris-Foulkes estimate   =   -5047.70747023 Ry
     estimated scf accuracy    <       0.00000998 Ry

     iteration # 17     ecut=    65.00 Ry     beta= 0.70
     CG style diagonalization
     ethr =  2.26E-09,  avg # of iterations =  4.3

     negative rho (up, down):  1.284E-03 0.000E+00

     total cpu time spent up to now is    11444.3 secs

     total energy              =   -5047.70747412 Ry
     Harris-Foulkes estimate   =   -5047.70747428 Ry
     estimated scf accuracy    <       0.00000121 Ry

     iteration # 18     ecut=    65.00 Ry     beta= 0.70
     CG style diagonalization
     c_bands:  3 eigenvalues not converged
     c_bands:  1 eigenvalues not converged
     c_bands:  1 eigenvalues not converged
     c_bands:  2 eigenvalues not converged
     c_bands:  1 eigenvalues not converged
     ethr =  2.75E-10,  avg # of iterations =  7.8

     negative rho (up, down):  1.282E-03 0.000E+00

     total cpu time spent up to now is    12404.1 secs

     total energy              =   -5047.70748146 Ry
     Harris-Foulkes estimate   =   -5047.70748158 Ry
     estimated scf accuracy    <       0.00000106 Ry

     iteration # 19     ecut=    65.00 Ry     beta= 0.70
     CG style diagonalization
     c_bands:  1 eigenvalues not converged
     ethr =  2.41E-10,  avg # of iterations =  5.5

     negative rho (up, down):  1.282E-03 0.000E+00

     total cpu time spent up to now is    13070.8 secs

     total energy              =   -5047.70748358 Ry
     Harris-Foulkes estimate   =   -5047.70748366 Ry
     estimated scf accuracy    <       0.00000048 Ry

     iteration # 20     ecut=    65.00 Ry     beta= 0.70
     CG style diagonalization
     c_bands:  1 eigenvalues not converged
     ethr =  1.08E-10,  avg # of iterations =  5.5

     negative rho (up, down):  1.282E-03 0.000E+00

     total cpu time spent up to now is    13748.6 secs

     total energy              =   -5047.70748447 Ry
     Harris-Foulkes estimate   =   -5047.70748454 Ry
     estimated scf accuracy    <       0.00000038 Ry

     iteration # 21     ecut=    65.00 Ry     beta= 0.70
     CG style diagonalization
     ethr =  8.58E-11,  avg # of iterations =  4.6

     negative rho (up, down):  1.280E-03 0.000E+00

     total cpu time spent up to now is    14298.5 secs

     total energy              =   -5047.70748495 Ry
     Harris-Foulkes estimate   =   -5047.70748494 Ry
     estimated scf accuracy    <       0.00000022 Ry

     iteration # 22     ecut=    65.00 Ry     beta= 0.70
     CG style diagonalization
     c_bands:  1 eigenvalues not converged
     ethr =  5.07E-11,  avg # of iterations =  4.6

     negative rho (up, down):  1.275E-03 0.000E+00

     total cpu time spent up to now is    14844.0 secs

     total energy              =   -5047.70748534 Ry
     Harris-Foulkes estimate   =   -5047.70748525 Ry
     estimated scf accuracy    <       0.00000008 Ry

     iteration # 23     ecut=    65.00 Ry     beta= 0.70
     CG style diagonalization
     c_bands:  1 eigenvalues not converged
     c_bands:  1 eigenvalues not converged
     ethr =  1.85E-11,  avg # of iterations =  5.9

     negative rho (up, down):  1.277E-03 0.000E+00

     total cpu time spent up to now is    15557.1 secs

     total energy              =   -5047.70748553 Ry
     Harris-Foulkes estimate   =   -5047.70748562 Ry
     estimated scf accuracy    <       0.00000030 Ry

     iteration # 24     ecut=    65.00 Ry     beta= 0.70
     CG style diagonalization
     ethr =  1.85E-11,  avg # of iterations =  4.8

     negative rho (up, down):  1.277E-03 0.000E+00

     total cpu time spent up to now is    16131.9 secs

     total energy              =   -5047.70748567 Ry
     Harris-Foulkes estimate   =   -5047.70748572 Ry
     estimated scf accuracy    <       0.00000016 Ry

     iteration # 25     ecut=    65.00 Ry     beta= 0.70
     CG style diagonalization
     ethr =  1.85E-11,  avg # of iterations =  4.3

     negative rho (up, down):  1.277E-03 0.000E+00

     total cpu time spent up to now is    16648.5 secs

     total energy              =   -5047.70748579 Ry
     Harris-Foulkes estimate   =   -5047.70748582 Ry
     estimated scf accuracy    <       0.00000018 Ry

     iteration # 26     ecut=    65.00 Ry     beta= 0.70
     CG style diagonalization
     ethr =  1.85E-11,  avg # of iterations =  3.7

     negative rho (up, down):  1.277E-03 0.000E+00

     total cpu time spent up to now is    17092.2 secs

     total energy              =   -5047.70748591 Ry
     Harris-Foulkes estimate   =   -5047.70748592 Ry
     estimated scf accuracy    <       0.00000008 Ry

     iteration # 27     ecut=    65.00 Ry     beta= 0.70
     CG style diagonalization
     ethr =  1.74E-11,  avg # of iterations =  3.3

     negative rho (up, down):  1.276E-03 0.000E+00

     total cpu time spent up to now is    17494.6 secs

     total energy              =   -5047.70748601 Ry
     Harris-Foulkes estimate   =   -5047.70748601 Ry
     estimated scf accuracy    <          9.9E-09 Ry

     iteration # 28     ecut=    65.00 Ry     beta= 0.70
     CG style diagonalization
     c_bands:  1 eigenvalues not converged
     c_bands:  1 eigenvalues not converged
     ethr =  2.24E-12,  avg # of iterations =  6.1

     negative rho (up, down):  1.276E-03 0.000E+00

     total cpu time spent up to now is    18256.8 secs

     total energy              =   -5047.70748612 Ry
     Harris-Foulkes estimate   =   -5047.70748611 Ry
     estimated scf accuracy    <       0.00000001 Ry

     iteration # 29     ecut=    65.00 Ry     beta= 0.70
     CG style diagonalization
     c_bands:  1 eigenvalues not converged
     ethr =  2.24E-12,  avg # of iterations =  5.0

     negative rho (up, down):  1.276E-03 0.000E+00

     total cpu time spent up to now is    18861.2 secs

     total energy              =   -5047.70748621 Ry
     Harris-Foulkes estimate   =   -5047.70748621 Ry
     estimated scf accuracy    <          2.4E-09 Ry

     iteration # 30     ecut=    65.00 Ry     beta= 0.70
     CG style diagonalization
     c_bands:  2 eigenvalues not converged
     c_bands:  3 eigenvalues not converged
     c_bands:  1 eigenvalues not converged
     c_bands:  1 eigenvalues not converged
     ethr =  5.43E-13,  avg # of iterations =  6.3

     negative rho (up, down):  1.276E-03 0.000E+00

     total cpu time spent up to now is    19641.1 secs

     total energy              =   -5047.70748629 Ry
     Harris-Foulkes estimate   =   -5047.70748629 Ry
     estimated scf accuracy    <          4.9E-09 Ry

     iteration # 31     ecut=    65.00 Ry     beta= 0.70
     CG style diagonalization
     ethr =  5.43E-13,  avg # of iterations =  4.8

     negative rho (up, down):  1.276E-03 0.000E+00

     total cpu time spent up to now is    20226.7 secs

     total energy              =   -5047.70748637 Ry
     Harris-Foulkes estimate   =   -5047.70748637 Ry
     estimated scf accuracy    <          5.0E-09 Ry

     iteration # 32     ecut=    65.00 Ry     beta= 0.70
     CG style diagonalization
     ethr =  5.43E-13,  avg # of iterations =  4.0

     negative rho (up, down):  1.276E-03 0.000E+00

     total cpu time spent up to now is    20713.7 secs

     total energy              =   -5047.70748645 Ry
     Harris-Foulkes estimate   =   -5047.70748645 Ry
     estimated scf accuracy    <          1.2E-09 Ry

     iteration # 33     ecut=    65.00 Ry     beta= 0.70
     CG style diagonalization
     ethr =  2.66E-13,  avg # of iterations =  4.4

     negative rho (up, down):  1.276E-03 0.000E+00

     total cpu time spent up to now is    21241.8 secs

     total energy              =   -5047.70748652 Ry
     Harris-Foulkes estimate   =   -5047.70748653 Ry
     estimated scf accuracy    <          4.0E-10 Ry

     iteration # 34     ecut=    65.00 Ry     beta= 0.70
     CG style diagonalization
     c_bands:  1 eigenvalues not converged
     c_bands:  1 eigenvalues not converged
     ethr =  1.00E-13,  avg # of iterations =  5.6

     negative rho (up, down):  1.276E-03 0.000E+00

     total cpu time spent up to now is    21947.9 secs

     total energy              =   -5047.70748660 Ry
     Harris-Foulkes estimate   =   -5047.70748660 Ry
     estimated scf accuracy    <          9.9E-10 Ry

     iteration # 35     ecut=    65.00 Ry     beta= 0.70
     CG style diagonalization
     ethr =  1.00E-13,  avg # of iterations =  4.5

     negative rho (up, down):  1.276E-03 0.000E+00

     total cpu time spent up to now is    22472.0 secs

     total energy              =   -5047.70748667 Ry
     Harris-Foulkes estimate   =   -5047.70748667 Ry
     estimated scf accuracy    <          1.2E-10 Ry

     iteration # 36     ecut=    65.00 Ry     beta= 0.70
     CG style diagonalization
     ethr =  1.00E-13,  avg # of iterations =  3.9

     negative rho (up, down):  1.276E-03 0.000E+00

     total cpu time spent up to now is    22918.5 secs

     total energy              =   -5047.70748674 Ry
     Harris-Foulkes estimate   =   -5047.70748674 Ry
     estimated scf accuracy    <          2.3E-10 Ry

     iteration # 37     ecut=    65.00 Ry     beta= 0.70
     CG style diagonalization
     ethr =  1.00E-13,  avg # of iterations =  3.5

     negative rho (up, down):  1.276E-03 0.000E+00

     total cpu time spent up to now is    23315.9 secs

     End of self-consistent calculation
 --- enter write_ns ---
 LDA+U parameters:
U( 1)     =  4.00000000
alpha( 1) =  0.00000000
atom    1   Tr[ns(na)] =   4.57420
    eigenvalues: 
  0.316  0.469  0.470  0.490  0.542
    eigenvectors:
  0.000  0.000  0.128  0.549  0.323
  0.999  0.001  0.000  0.000  0.000
  0.000  0.003  0.776  0.218  0.003
  0.000  0.000  0.094  0.232  0.673
  0.001  0.995  0.003  0.001  0.000
    occupations:
  0.504 -0.000  0.004  0.027  0.000
 -0.000  0.316  0.000  0.001  0.005
  0.004  0.000  0.475 -0.008  0.000
  0.027  0.001 -0.008  0.523 -0.000
  0.000  0.005  0.000 -0.000  0.469
atom    2   Tr[ns(na)] =   4.57711
    eigenvalues: 
  0.312  0.469  0.472  0.491  0.545
    eigenvectors:
  0.000  0.000  0.129  0.559  0.312
  0.998  0.002  0.000  0.000  0.000
  0.000  0.000  0.771  0.224  0.005
  0.000  0.000  0.101  0.216  0.683
  0.002  0.998  0.000  0.000  0.000
    occupations:
  0.505 -0.000  0.004  0.027  0.000
 -0.000  0.312 -0.000  0.000  0.007
  0.004 -0.000  0.477 -0.008  0.000
  0.027  0.000 -0.008  0.526 -0.000
  0.000  0.007  0.000 -0.000  0.469
atom    3   Tr[ns(na)] =   4.57270
    eigenvalues: 
  0.320  0.464  0.470  0.489  0.542
    eigenvectors:
  0.000  0.000  0.146  0.528  0.327
  0.998  0.002  0.000  0.000  0.000
  0.000  0.000  0.743  0.253  0.004
  0.000  0.000  0.112  0.219  0.669
  0.002  0.998  0.000  0.000  0.000
    occupations:
  0.504 -0.000 -0.004  0.027  0.000
 -0.000  0.321 -0.000  0.000 -0.006
 -0.004 -0.000  0.475  0.008  0.000
  0.027  0.000  0.008  0.523 -0.000
  0.000 -0.006  0.000 -0.000  0.464
atom    4   Tr[ns(na)] =   4.57396
    eigenvalues: 
  0.319  0.465  0.471  0.490  0.543
    eigenvectors:
  0.000  0.007  0.148  0.545  0.300
  0.998  0.001  0.001  0.000  0.000
  0.000  0.005  0.745  0.248  0.003
  0.000  0.001  0.097  0.206  0.696
  0.001  0.986  0.010  0.002  0.000
    occupations:
  0.503 -0.000 -0.005  0.027  0.002
 -0.000  0.319 -0.003  0.002 -0.005
 -0.005 -0.003  0.476  0.007 -0.000
  0.027  0.002  0.007  0.525  0.001
  0.002 -0.005 -0.000  0.001  0.465
atom   15   Tr[ns(na)] =   4.56727
    eigenvalues: 
  0.311  0.470  0.474  0.483  0.546
    eigenvectors:
  0.010  0.083  0.036  0.621  0.250
  0.989  0.000  0.001  0.009  0.001
  0.001  0.681  0.168  0.149  0.000
  0.000  0.020  0.015  0.217  0.748
  0.001  0.215  0.780  0.003  0.000
    occupations:
  0.496  0.018  0.004  0.029 -0.000
  0.018  0.313  0.006 -0.001 -0.004
  0.004  0.006  0.472 -0.001  0.002
  0.029 -0.001 -0.001  0.530 -0.001
 -0.000 -0.004  0.002 -0.001  0.473
atom   16   Tr[ns(na)] =   4.57241
    eigenvalues: 
  0.297  0.474  0.482  0.489  0.545
    eigenvectors:
  0.000  0.000  0.042  0.647  0.311
  1.000  0.000  0.000  0.000  0.000
  0.000  0.000  0.918  0.079  0.003
  0.000  0.000  0.040  0.274  0.686
  0.000  1.000  0.000  0.000  0.000
    occupations:
  0.506 -0.000  0.000  0.026  0.000
 -0.000  0.297 -0.000  0.000 -0.003
  0.000 -0.000  0.482  0.004  0.000
  0.026  0.000  0.004  0.527 -0.000
  0.000 -0.003  0.000 -0.000  0.474
atom   17   Tr[ns(na)] =   4.61941
    eigenvalues: 
  0.376  0.434  0.472  0.490  0.537
    eigenvectors:
  0.000  0.481  0.000  0.180  0.339
  0.993  0.000  0.007  0.000  0.000
  0.000  0.265  0.000  0.735  0.000
  0.000  0.254  0.000  0.085  0.661
  0.007  0.000  0.993  0.000  0.000
    occupations:
  0.479 -0.000 -0.020  0.042  0.000
 -0.000  0.377 -0.000  0.000  0.008
 -0.020 -0.000  0.475  0.015  0.000
  0.042  0.000  0.015  0.507 -0.000
  0.000  0.008  0.000 -0.000  0.471
atom   18   Tr[ns(na)] =   4.56699
    eigenvalues: 
  0.322  0.456  0.472  0.493  0.541
    eigenvectors:
  0.011  0.003  0.438  0.039  0.510
  0.962  0.000  0.009  0.021  0.009
  0.024  0.090  0.100  0.783  0.003
  0.002  0.055  0.402  0.112  0.429
  0.001  0.853  0.051  0.046  0.049
    occupations:
  0.506 -0.019 -0.008  0.030  0.013
 -0.019  0.328 -0.025 -0.012  0.004
 -0.008 -0.025  0.484  0.004 -0.008
  0.030 -0.012  0.004  0.503  0.012
  0.013  0.004 -0.008  0.012  0.463
atom   28   Tr[ns(na)] =   4.57420
    eigenvalues: 
  0.316  0.469  0.470  0.490  0.542
    eigenvectors:
  0.000  0.000  0.128  0.549  0.323
  0.999  0.001  0.000  0.000  0.000
  0.000  0.003  0.776  0.218  0.003
  0.000  0.000  0.094  0.232  0.673
  0.001  0.995  0.003  0.001  0.000
    occupations:
  0.504  0.000  0.004  0.027 -0.000
  0.000  0.316 -0.000 -0.001  0.005
  0.004 -0.000  0.475 -0.008 -0.000
  0.027 -0.001 -0.008  0.523  0.000
 -0.000  0.005 -0.000  0.000  0.469
atom   29   Tr[ns(na)] =   4.56869
    eigenvalues: 
  0.319  0.468  0.470  0.487  0.540
    eigenvectors:
  0.000  0.115  0.000  0.583  0.302
  0.999  0.000  0.001  0.000  0.000
  0.000  0.798  0.000  0.197  0.004
  0.000  0.087  0.000  0.219  0.694
  0.001  0.000  0.999  0.000  0.000
    occupations:
  0.501 -0.000  0.004  0.026  0.000
 -0.000  0.319 -0.000  0.000  0.006
  0.004 -0.000  0.472 -0.008  0.000
  0.026  0.000 -0.008  0.522 -0.000
  0.000  0.006  0.000 -0.000  0.469
atom   30   Tr[ns(na)] =   4.56727
    eigenvalues: 
  0.323  0.466  0.468  0.493  0.534
    eigenvectors:
  0.000  0.000  0.074  0.611  0.315
  0.994  0.006  0.000  0.000  0.000
  0.000  0.000  0.825  0.161  0.014
  0.000  0.000  0.101  0.228  0.671
  0.006  0.994  0.000  0.000  0.000
    occupations:
  0.504 -0.000 -0.004  0.021  0.000
 -0.000  0.324 -0.000  0.000 -0.011
 -0.004 -0.000  0.473  0.011  0.000
  0.021  0.000  0.011  0.518 -0.000
  0.000 -0.011  0.000 -0.000  0.465
atom   31   Tr[ns(na)] =   4.57396
    eigenvalues: 
  0.319  0.465  0.471  0.490  0.543
    eigenvectors:
  0.000  0.007  0.148  0.545  0.300
  0.998  0.001  0.001  0.000  0.000
  0.000  0.005  0.745  0.248  0.003
  0.000  0.001  0.097  0.206  0.696
  0.001  0.986  0.010  0.002  0.000
    occupations:
  0.503  0.000 -0.005  0.027 -0.002
  0.000  0.319  0.003 -0.002 -0.005
 -0.005  0.003  0.476  0.007  0.000
  0.027 -0.002  0.007  0.525 -0.001
 -0.002 -0.005  0.000 -0.001  0.465
atom   42   Tr[ns(na)] =   4.56727
    eigenvalues: 
  0.311  0.470  0.474  0.483  0.546
    eigenvectors:
  0.010  0.083  0.036  0.621  0.250
  0.989  0.000  0.001  0.009  0.001
  0.001  0.681  0.168  0.149  0.000
  0.000  0.020  0.015  0.217  0.748
  0.001  0.215  0.780  0.003  0.000
    occupations:
  0.496 -0.018  0.004  0.029  0.000
 -0.018  0.313 -0.006  0.001 -0.004
  0.004 -0.006  0.472 -0.001 -0.002
  0.029  0.001 -0.001  0.530  0.001
  0.000 -0.004 -0.002  0.001  0.473
atom   43   Tr[ns(na)] =   4.55602
    eigenvalues: 
  0.338  0.453  0.471  0.471  0.544
    eigenvectors:
  0.000  0.297  0.488  0.000  0.214
  1.000  0.000  0.000  0.000  0.000
  0.000  0.633  0.367  0.000  0.001
  0.000  0.070  0.145  0.000  0.785
  0.000  0.000  0.000  1.000  0.000
    occupations:
  0.481 -0.000  0.008  0.033  0.000
 -0.000  0.338 -0.000  0.000 -0.002
  0.008 -0.000  0.460 -0.002  0.000
  0.033  0.000 -0.002  0.527 -0.000
  0.000 -0.002  0.000 -0.000  0.471
atom   44   Tr[ns(na)] =   4.53835
    eigenvalues: 
  0.367  0.429  0.447  0.478  0.548
    eigenvectors:
  0.000  0.519  0.000  0.041  0.440
  0.942  0.000  0.058  0.000  0.000
  0.000  0.065  0.000  0.935  0.000
  0.000  0.416  0.000  0.024  0.560
  0.058  0.000  0.942  0.000  0.000
    occupations:
  0.483 -0.000 -0.008  0.058  0.000
 -0.000  0.372 -0.000  0.000 -0.019
 -0.008 -0.000  0.475  0.009  0.000
  0.058  0.000  0.009  0.497 -0.000
  0.000 -0.019  0.000 -0.000  0.442
atom   45   Tr[ns(na)] =   4.56699
    eigenvalues: 
  0.322  0.456  0.472  0.493  0.541
    eigenvectors:
  0.011  0.003  0.438  0.039  0.510
  0.962  0.000  0.009  0.021  0.009
  0.024  0.090  0.100  0.783  0.003
  0.002  0.055  0.402  0.112  0.429
  0.001  0.853  0.051  0.046  0.049
    occupations:
  0.506  0.019 -0.008  0.030 -0.013
  0.019  0.328  0.025  0.012  0.004
 -0.008  0.025  0.484  0.004  0.008
  0.030  0.012  0.004  0.503 -0.012
 -0.013  0.004  0.008 -0.012  0.463
N of occupied +U levels =   73.136816
 --- exit write_ns ---

          k = 0.0000 0.0000 0.0000 ( 43483 PWs)   bands (ev):

   -60.2444 -60.1385 -60.1303 -60.1279 -60.0889 -60.0459 -60.0058 -59.9943
   -59.9895 -59.9857 -59.9844 -59.9822 -59.9708 -59.9661 -59.9634 -59.9305
   -34.2821 -34.1264 -34.1097 -34.1064 -34.1016 -34.0968 -34.0520 -34.0454
   -34.0307 -34.0125 -34.0091 -33.9926 -33.9922 -33.9834 -33.9690 -33.9653
   -33.9621 -33.9599 -33.9579 -33.9569 -33.9550 -33.9457 -33.9440 -33.9286
   -33.9266 -33.9139 -33.9108 -33.9017 -33.8928 -33.8854 -33.8834 -33.8815
   -33.8731 -33.8628 -33.8493 -33.8424 -33.8401 -33.8243 -33.8193 -33.8181
   -33.8134 -33.8110 -33.8044 -33.7963 -33.7881 -33.7874 -33.7747 -33.7698
   -13.6063 -13.4550 -13.3207 -13.2005 -12.8940 -12.8536 -12.5389 -12.5016
   -12.4883 -12.3688 -12.3502 -12.3069 -12.2849 -12.2520 -12.2272 -12.2189
   -12.2107 -12.1969 -12.1341 -12.0470 -12.0462 -12.0063 -11.9636 -11.9566
   -11.9428 -11.9251 -11.9079 -11.8643 -11.8603 -11.8231 -11.7938 -11.7521
   -11.7231 -11.7084 -11.7035 -11.6991 -11.6857 -11.6695 -11.6304  -0.7806
    -0.7790  -0.4718  -0.4525  -0.3882  -0.3019  -0.2812  -0.2593  -0.2120
    -0.2102  -0.1720  -0.1578  -0.1312  -0.0722  -0.0515  -0.0505  -0.0299
    -0.0116   0.0135   0.0314   0.1580   0.1643   0.2385   0.2797   0.3076
     0.3415   0.3800   0.3996   0.4853   0.5524   0.5589   0.6042   0.6295
     0.6761   0.7949   0.8060   0.8664   1.0609   1.0920   1.1240   1.1396
     1.1661   1.2065   1.2158   1.2479   1.2953   1.3199   1.3638   1.4229
     1.4238   1.4521   1.5600   1.5987   1.6095   1.6414   1.7038   1.7170
     1.7401   1.7609   1.7941   1.8368   1.8398   1.8885   1.8958   1.9308
     1.9668   2.0242   2.0472   2.0690   2.0855   2.1295   2.1966   2.2116
     2.2293   2.2768   2.3164   2.4251   2.4437   2.4956   2.4983   2.5071
     2.5494   2.6013   2.6019   2.6859   2.7015   2.7483   2.8209   2.8310
     2.8428   2.9070   2.9181   2.9494   3.0205   3.0717   3.0895   3.1552
     3.1901   3.2206   3.2227   3.2467   3.2846   3.3025   3.3349   3.4087
     3.4270   3.4325   3.4852   3.6938   3.7284   3.7930   3.7990   3.8887
     3.9063   3.9084   4.0033   4.0360   6.0816   6.2613   6.3856   6.4623
     6.4853   6.6225   6.7050   6.7576   6.8048   6.8051   7.1326   7.1508
     7.3318   7.3594   7.3723   7.4049   7.4181   7.4727   7.4884   7.5173
     7.5601   7.5724   7.6245   7.6512   7.6655   7.6702   7.6850   7.7164
     7.7220   7.7350   7.7477   7.7507   7.7954   7.9592   8.0900   8.1077
     8.1579   8.1775   8.1858   8.2098   8.2874   8.3092   8.3627   8.3864
     8.5351

          k = 0.0000 0.0000-0.3100 ( 43572 PWs)   bands (ev):

   -60.2444 -60.1385 -60.1303 -60.1279 -60.0889 -60.0459 -60.0058 -59.9943
   -59.9895 -59.9860 -59.9842 -59.9822 -59.9708 -59.9661 -59.9634 -59.9305
   -34.2821 -34.1263 -34.1098 -34.1063 -34.1019 -34.0968 -34.0518 -34.0452
   -34.0308 -34.0125 -34.0064 -33.9969 -33.9924 -33.9835 -33.9684 -33.9666
   -33.9627 -33.9598 -33.9580 -33.9571 -33.9551 -33.9457 -33.9446 -33.9290
   -33.9238 -33.9105 -33.9099 -33.8943 -33.8927 -33.8886 -33.8868 -33.8806
   -33.8799 -33.8741 -33.8494 -33.8396 -33.8298 -33.8194 -33.8184 -33.8169
   -33.8142 -33.8105 -33.8061 -33.7965 -33.7934 -33.7882 -33.7748 -33.7698
   -13.5841 -13.4830 -13.2769 -13.2522 -12.8961 -12.8524 -12.5395 -12.4909
   -12.4581 -12.3677 -12.3439 -12.3382 -12.2779 -12.2561 -12.2282 -12.2191
   -12.1970 -12.1760 -12.1675 -12.0493 -12.0292 -12.0231 -11.9591 -11.9525
   -11.9386 -11.9314 -11.9262 -11.8646 -11.8607 -11.8231 -11.7925 -11.7516
   -11.7175 -11.7035 -11.7010 -11.6992 -11.6938 -11.6583 -11.6386  -0.7850
    -0.7798  -0.4723  -0.4588  -0.3762  -0.3279  -0.2845  -0.2611  -0.2122
    -0.1868  -0.1614  -0.1471  -0.1064  -0.1034  -0.0711  -0.0576  -0.0512
    -0.0368  -0.0326   0.1444   0.1536   0.1953   0.2513   0.3038   0.3061
     0.3522   0.3844   0.4332   0.4355   0.4477   0.5200   0.5271   0.5956
     0.6797   0.8421   0.9396   1.0297   1.0443   1.0466   1.1004   1.1719
     1.2293   1.2856   1.2857   1.2943   1.3164   1.3323   1.3410   1.3729
     1.3840   1.3950   1.4191   1.4474   1.4671   1.5180   1.6017   1.6318
     1.7329   1.7618   1.7778   1.8679   1.9534   2.0101   2.0405   2.0518
     2.0765   2.0979   2.1026   2.1332   2.1832   2.2005   2.2600   2.2640
     2.3061   2.3102   2.3332   2.3774   2.4071   2.4797   2.4949   2.4999
     2.5109   2.5358   2.5667   2.5896   2.5934   2.6157   2.6757   2.7351
     2.7520   2.8243   2.8469   2.8609   3.0119   3.0752   3.1864   3.1875
     3.2214   3.2244   3.2433   3.2827   3.3170   3.3671   3.4016   3.4423
     3.4965   3.5092   3.5531   3.6100   3.6342   3.6524   3.8378   3.8556
     3.9182   4.0029   4.0192   4.0249   6.1101   6.2644   6.3873   6.4553
     6.4828   6.6010   6.7706   6.7932   6.8860   6.8864   7.0722   7.1315
     7.3170   7.3270   7.3400   7.4084   7.4133   7.4237   7.4855   7.5313
     7.5474   7.6103   7.6380   7.6554   7.6614   7.6759   7.6901   7.7042
     7.7122   7.7160   7.7633   7.7815   7.8570   7.8644   7.9066   8.0489
     8.0752   8.1387   8.1695   8.3443   8.4089   8.4114   8.5319   8.6203
     8.6633

          k = 0.0000-0.4061 0.0000 ( 43398 PWs)   bands (ev):

   -60.2443 -60.1384 -60.1303 -60.1278 -60.0888 -60.0459 -60.0058 -59.9943
   -59.9895 -59.9857 -59.9844 -59.9822 -59.9708 -59.9661 -59.9633 -59.9304
   -34.2821 -34.1265 -34.1097 -34.1064 -34.1016 -34.0968 -34.0519 -34.0454
   -34.0306 -34.0125 -34.0090 -33.9926 -33.9921 -33.9835 -33.9691 -33.9653
   -33.9621 -33.9600 -33.9579 -33.9569 -33.9550 -33.9456 -33.9440 -33.9287
   -33.9266 -33.9139 -33.9108 -33.9017 -33.8927 -33.8853 -33.8834 -33.8815
   -33.8731 -33.8628 -33.8493 -33.8423 -33.8401 -33.8243 -33.8193 -33.8181
   -33.8134 -33.8109 -33.8045 -33.7963 -33.7881 -33.7874 -33.7746 -33.7698
   -13.5969 -13.4436 -13.3322 -13.2083 -12.8936 -12.8514 -12.5307 -12.4916
   -12.4801 -12.3635 -12.3524 -12.3094 -12.2819 -12.2515 -12.2392 -12.2179
   -12.2058 -12.2027 -12.1323 -12.0466 -12.0457 -12.0126 -11.9607 -11.9574
   -11.9421 -11.9297 -11.9026 -11.8503 -11.8464 -11.8215 -11.7982 -11.7577
   -11.7251 -11.7231 -11.7024 -11.6995 -11.6925 -11.6714 -11.6590  -0.7819
    -0.7768  -0.4701  -0.4406  -0.2849  -0.2782  -0.2598  -0.2311  -0.2035
    -0.1561  -0.1549  -0.0934  -0.0731  -0.0726  -0.0613  -0.0316  -0.0002
     0.0042   0.0345   0.1417   0.1459   0.1764   0.3126   0.3471   0.4062
     0.4251   0.5473   0.5482   0.6483   0.6617   0.6845   0.7167   0.7233
     0.7543   0.7707   0.8153   0.8625   0.8834   0.8987   0.9144   0.9609
     0.9756   0.9814   1.0030   1.0907   1.1032   1.2530   1.2653   1.2986
     1.3589   1.3680   1.4151   1.5275   1.5317   1.5382   1.5782   1.6266
     1.6365   1.6430   1.7365   1.7844   1.8242   1.8676   1.8726   1.8963
     1.9210   1.9374   1.9523   1.9617   2.0447   2.1734   2.2206   2.3395
     2.3491   2.4380   2.4581   2.4758   2.5042   2.5172   2.6080   2.6367
     2.6780   2.7139   2.7524   2.7768   2.7951   2.8085   2.8267   2.8434
     2.8436   2.8798   2.9259   2.9627   3.0835   3.1236   3.1644   3.1954
     3.2155   3.2256   3.2595   3.3065   3.3174   3.3986   3.4154   3.4462
     3.5027   3.5397   3.5428   3.5673   3.5905   3.6598   3.6983   3.7417
     3.7922   3.8050   3.8496   3.8576   6.0888   6.2729   6.3966   6.4429
     6.5057   6.6013   6.6897   6.7555   6.7969   6.7999   7.1409   7.1540
     7.3589   7.3709   7.4071   7.4125   7.4225   7.4721   7.4932   7.5585
     7.5621   7.5933   7.6193   7.6497   7.6510   7.6575   7.6905   7.7064
     7.7203   7.7408   7.7705   7.7819   7.8010   8.0354   8.1272   8.1399
     8.1585   8.2068   8.2448   8.2501   8.2553   8.3296   8.3662   8.5352
     8.6269

          k = 0.0000-0.4061-0.3100 ( 43472 PWs)   bands (ev):

   -60.2443 -60.1384 -60.1303 -60.1278 -60.0889 -60.0459 -60.0058 -59.9943
   -59.9895 -59.9859 -59.9841 -59.9822 -59.9708 -59.9661 -59.9633 -59.9304
   -34.2820 -34.1263 -34.1097 -34.1062 -34.1018 -34.0968 -34.0518 -34.0451
   -34.0308 -34.0125 -34.0063 -33.9969 -33.9922 -33.9834 -33.9684 -33.9666
   -33.9627 -33.9598 -33.9580 -33.9571 -33.9551 -33.9457 -33.9446 -33.9291
   -33.9239 -33.9105 -33.9099 -33.8942 -33.8926 -33.8886 -33.8868 -33.8806
   -33.8799 -33.8741 -33.8494 -33.8396 -33.8298 -33.8193 -33.8184 -33.8169
   -33.8141 -33.8105 -33.8061 -33.7964 -33.7934 -33.7881 -33.7748 -33.7698
   -13.5764 -13.4699 -13.2834 -13.2650 -12.8958 -12.8502 -12.5317 -12.4830
   -12.4510 -12.3575 -12.3456 -12.3400 -12.2779 -12.2540 -12.2303 -12.2157
   -12.2020 -12.1784 -12.1735 -12.0464 -12.0299 -12.0283 -11.9571 -11.9532
   -11.9442 -11.9326 -11.9148 -11.8503 -11.8465 -11.8215 -11.7996 -11.7578
   -11.7253 -11.7222 -11.7024 -11.7002 -11.6913 -11.6674 -11.6572  -0.7879
    -0.7761  -0.4707  -0.4473  -0.2768  -0.2722  -0.2564  -0.2028  -0.1958
    -0.1598  -0.1535  -0.1373  -0.1134  -0.0721  -0.0620  -0.0444  -0.0099
     0.0017   0.0997   0.1357   0.1414   0.1884   0.1915   0.4109   0.4368
     0.4577   0.5657   0.6041   0.6154   0.6665   0.6726   0.6975   0.7155
     0.7266   0.7771   0.8309   0.8433   0.8693   0.9044   0.9198   0.9360
     0.9576   0.9830   1.0390   1.1315   1.1972   1.2572   1.2845   1.3129
     1.3272   1.3973   1.4132   1.4731   1.5062   1.5535   1.5821   1.5892
     1.6084   1.6355   1.6479   1.6578   1.6936   1.6950   1.8741   1.9215
     2.0712   2.1167   2.1362   2.1383   2.2292   2.3315   2.3319   2.3387
     2.4085   2.4426   2.4491   2.4656   2.4706   2.4992   2.5092   2.5135
     2.5348   2.5471   2.5497   2.6328   2.6584   2.7330   2.7842   2.8471
     2.8546   2.8971   3.0856   3.1044   3.1657   3.1708   3.1946   3.1968
     3.2213   3.2277   3.2578   3.2787   3.3295   3.3559   3.4374   3.4725
     3.5048   3.5332   3.5364   3.5507   3.5618   3.5780   3.7125   3.7392
     3.8108   3.8159   3.8748   3.8782   6.1202   6.2780   6.4015   6.4580
     6.4775   6.5745   6.7536   6.7916   6.8897   6.8910   7.0751   7.1331
     7.3271   7.3299   7.3348   7.4164   7.4489   7.4829   7.5391   7.5619
     7.5976   7.6307   7.6397   7.6439   7.6499   7.6583   7.6670   7.6945
     7.7134   7.7347   7.7876   7.7987   7.8580   7.8604   7.9098   8.0807
     8.0933   8.1338   8.1410   8.3778   8.3921   8.4018   8.5298   8.6217
     8.6609

          k =-0.5000 0.0000 0.0000 ( 43442 PWs)   bands (ev):

   -60.2444 -60.1370 -60.1322 -60.1273 -60.0889 -60.0458 -60.0055 -59.9933
   -59.9909 -59.9850 -59.9841 -59.9832 -59.9707 -59.9654 -59.9642 -59.9306
   -34.2820 -34.1236 -34.1168 -34.1051 -34.0974 -34.0960 -34.0499 -34.0392
   -34.0235 -34.0124 -34.0006 -33.9992 -33.9864 -33.9836 -33.9831 -33.9683
   -33.9635 -33.9628 -33.9571 -33.9538 -33.9523 -33.9501 -33.9428 -33.9281
   -33.9237 -33.9114 -33.9043 -33.8994 -33.8856 -33.8812 -33.8796 -33.8705
   -33.8687 -33.8667 -33.8537 -33.8504 -33.8474 -33.8347 -33.8278 -33.8207
   -33.8122 -33.8038 -33.8023 -33.7981 -33.7959 -33.7853 -33.7827 -33.7718
   -13.5088 -13.2238 -13.0577 -13.0504 -12.9727 -12.9657 -12.8458 -12.8456
   -12.7369 -12.4654 -12.3734 -12.2905 -12.2730 -12.2223 -12.2166 -12.1283
   -12.1253 -12.0506 -12.0432 -12.0423 -12.0313 -12.0229 -11.9801 -11.9732
   -11.9213 -11.8920 -11.8914 -11.8832 -11.8815 -11.8483 -11.7899 -11.7759
   -11.7475 -11.7243 -11.6923 -11.6893 -11.6688 -11.6655 -11.6287  -0.9359
    -0.7900  -0.6604  -0.6068  -0.5420  -0.5321  -0.5137  -0.5091  -0.2750
    -0.2029  -0.1483  -0.0822  -0.0604  -0.0588   0.0120   0.0222   0.0379
     0.0789   0.1359   0.1649   0.2088   0.2118   0.3112   0.3466   0.3854
     0.3903   0.4306   0.5267   0.5341   0.5717   0.6105   0.6385   0.7044
     0.7803   0.8003   0.8340   0.8494   0.8612   0.9329   0.9954   0.9963
     1.1859   1.2323   1.2469   1.2872   1.3127   1.3299   1.3727   1.4121
     1.4224   1.5532   1.5768   1.5801   1.6923   1.6940   1.7492   1.8210
     1.8274   1.8705   1.9275   1.9632   1.9766   2.0043   2.0223   2.0382
     2.0460   2.0634   2.0730   2.1184   2.1308   2.1344   2.1504   2.1730
     2.1916   2.1918   2.2267   2.2664   2.2754   2.3234   2.3444   2.4142
     2.4561   2.4794   2.5119   2.5629   2.5971   2.7147   2.7153   2.7498
     2.8561   2.8817   2.8889   2.9705   2.9820   3.0324   3.0844   3.2082
     3.2248   3.2797   3.3092   3.3322   3.4290   3.4880   3.5161   3.5475
     3.6528   3.6610   3.6983   3.7371   3.8547   3.8661   3.8737   3.8821
     3.9094   3.9142   3.9253   3.9273   5.7894   6.3727   6.5713   6.5913
     6.6416   6.6614   6.7920   6.7983   6.8132   7.0617   7.0977   7.2389
     7.2584   7.3144   7.3701   7.3987   7.4091   7.4133   7.4586   7.4788
     7.5049   7.5390   7.5695   7.5858   7.5945   7.6438   7.6798   7.7446
     7.7505   7.7588   7.7700   7.7842   7.8079   7.8511   7.8665   7.8889
     7.9110   7.9301   8.0032   8.0112   8.0175   8.0712   8.0955   8.1741
     8.2063

          k =-0.5000 0.0000-0.3100 ( 43392 PWs)   bands (ev):

   -60.2444 -60.1370 -60.1322 -60.1273 -60.0889 -60.0458 -60.0055 -59.9933
   -59.9909 -59.9854 -59.9838 -59.9832 -59.9707 -59.9654 -59.9642 -59.9306
   -34.2820 -34.1236 -34.1164 -34.1054 -34.0973 -34.0960 -34.0496 -34.0392
   -34.0233 -34.0124 -34.0007 -33.9976 -33.9898 -33.9840 -33.9831 -33.9678
   -33.9632 -33.9625 -33.9583 -33.9544 -33.9520 -33.9503 -33.9433 -33.9284
   -33.9195 -33.9082 -33.8993 -33.8986 -33.8931 -33.8872 -33.8779 -33.8760
   -33.8701 -33.8624 -33.8528 -33.8507 -33.8488 -33.8347 -33.8241 -33.8164
   -33.8071 -33.8042 -33.8034 -33.7980 -33.7964 -33.7870 -33.7865 -33.7718
   -13.5051 -13.1956 -13.0919 -13.0630 -12.9269 -12.9241 -12.9055 -12.9002
   -12.7397 -12.4080 -12.3242 -12.3104 -12.2824 -12.2746 -12.2182 -12.0626
   -12.0580 -12.0528 -12.0457 -12.0366 -12.0362 -12.0317 -12.0248 -12.0186
   -11.9234 -11.9048 -11.9015 -11.8867 -11.8785 -11.8643 -11.7849 -11.7647
   -11.7283 -11.7153 -11.7068 -11.6847 -11.6710 -11.6581 -11.6363  -0.9366
    -0.7968  -0.6636  -0.6047  -0.5443  -0.5354  -0.5185  -0.5136  -0.2833
    -0.2105  -0.1499  -0.1115  -0.0517  -0.0125   0.0282   0.0521   0.0735
     0.0755   0.0964   0.1025   0.2307   0.3198   0.3409   0.3437   0.3930
     0.4405   0.4610   0.5080   0.5493   0.5555   0.5611   0.6044   0.6600
     0.6649   0.6723   0.8392   0.8577   0.8970   0.9142   1.0306   1.1184
     1.1430   1.1852   1.1978   1.2924   1.3144   1.3607   1.4005   1.4185
     1.4210   1.4322   1.4540   1.5646   1.7672   1.7907   1.8480   1.8905
     1.9231   1.9696   1.9845   1.9906   2.0001   2.0120   2.0413   2.0512
     2.0761   2.0867   2.1003   2.1108   2.1155   2.1405   2.1572   2.1739
     2.1815   2.1964   2.2204   2.2242   2.2503   2.3600   2.4005   2.4151
     2.4429   2.4997   2.5037   2.5166   2.5500   2.5772   2.6024   2.6556
     2.6698   2.7647   2.9044   3.0140   3.1062   3.1129   3.1541   3.1586
     3.2151   3.2432   3.2733   3.2774   3.4566   3.5006   3.5231   3.5944
     3.6491   3.6698   3.6814   3.6907   3.8708   3.8713   3.8900   3.9011
     3.9163   3.9195   3.9291   3.9334   5.7987   6.3971   6.5722   6.6063
     6.7214   6.7534   6.7546   6.7565   6.7771   7.1140   7.1171   7.2392
     7.2594   7.2790   7.3674   7.3753   7.4389   7.4399   7.4861   7.4936
     7.5168   7.5240   7.5735   7.5813   7.6022   7.6387   7.6641   7.6783
     7.7045   7.7660   7.7735   7.8250   7.8492   7.8550   7.8636   7.8747
     7.9378   7.9446   7.9625   7.9669   7.9736   7.9946   8.0748   8.0847
     8.1096

          k =-0.5000-0.4061 0.0000 ( 43484 PWs)   bands (ev):

   -60.2444 -60.1370 -60.1322 -60.1273 -60.0889 -60.0458 -60.0055 -59.9933
   -59.9909 -59.9850 -59.9841 -59.9831 -59.9707 -59.9654 -59.9642 -59.9306
   -34.2820 -34.1236 -34.1168 -34.1052 -34.0974 -34.0961 -34.0499 -34.0392
   -34.0235 -34.0124 -34.0006 -33.9991 -33.9865 -33.9836 -33.9831 -33.9683
   -33.9636 -33.9628 -33.9571 -33.9538 -33.9524 -33.9501 -33.9429 -33.9283
   -33.9236 -33.9114 -33.9042 -33.8994 -33.8856 -33.8812 -33.8796 -33.8705
   -33.8687 -33.8668 -33.8537 -33.8504 -33.8474 -33.8347 -33.8278 -33.8207
   -33.8122 -33.8038 -33.8024 -33.7982 -33.7959 -33.7854 -33.7828 -33.7718
   -13.5054 -13.2125 -13.0384 -13.0353 -12.9865 -12.9825 -12.8526 -12.8507
   -12.7380 -12.4580 -12.3617 -12.2894 -12.2724 -12.2203 -12.2166 -12.1367
   -12.1304 -12.0503 -12.0416 -12.0403 -12.0305 -12.0223 -11.9807 -11.9780
   -11.9167 -11.8999 -11.8978 -11.8733 -11.8692 -11.8504 -11.7768 -11.7704
   -11.7245 -11.7110 -11.7077 -11.6984 -11.6849 -11.6847 -11.6606  -0.9349
    -0.7887  -0.6563  -0.6106  -0.5396  -0.5323  -0.5167  -0.5087  -0.1689
    -0.1557  -0.1133  -0.0658   0.0113   0.0455   0.0983   0.1016   0.1304
     0.1500   0.2144   0.2163   0.2628   0.3064   0.3783   0.4535   0.4733
     0.5105   0.5331   0.5825   0.5957   0.6192   0.6427   0.7123   0.7465
     0.7525   0.7724   0.7735   0.7839   0.7849   0.8646   0.9045   0.9098
     0.9629   1.0017   1.0266   1.0423   1.0953   1.1048   1.2092   1.3170
     1.4478   1.4542   1.4864   1.5025   1.6292   1.6805   1.6964   1.7419
     1.7565   1.7913   1.7975   1.8152   1.8277   1.8556   1.8593   1.9035
     1.9123   2.0817   2.0945   2.1072   2.1113   2.1406   2.1901   2.1930
     2.2045   2.2593   2.3182   2.3723   2.3855   2.4551   2.4792   2.5182
     2.5811   2.6623   2.6703   2.6971   2.7429   2.7499   2.8062   2.8818
     2.9132   2.9132   2.9347   3.0638   3.0692   3.1145   3.1413   3.2511
     3.2857   3.3461   3.3608   3.4525   3.4739   3.4781   3.5022   3.5327
     3.5624   3.5861   3.6479   3.6490   3.6610   3.6843   3.7513   3.7565
     3.8602   3.8626   3.8945   3.8957   5.7833   6.3791   6.5833   6.6052
     6.6442   6.6638   6.7883   6.7935   6.8197   7.0564   7.1131   7.2602
     7.3152   7.3254   7.3958   7.4171   7.4216   7.4413   7.4547   7.4658
     7.5015   7.5158   7.5535   7.5586   7.6294   7.6322   7.7156   7.7317
     7.7419   7.7436   7.7616   7.7911   7.8052   7.8608   7.8775   7.9035
     7.9396   7.9496   7.9933   8.0415   8.0434   8.0543   8.0715   8.0942
     8.2109

          k =-0.5000-0.4061-0.3100 ( 43472 PWs)   bands (ev):

   -60.2444 -60.1370 -60.1322 -60.1273 -60.0889 -60.0458 -60.0055 -59.9932
   -59.9909 -59.9854 -59.9838 -59.9831 -59.9707 -59.9654 -59.9642 -59.9306
   -34.2820 -34.1236 -34.1164 -34.1054 -34.0974 -34.0961 -34.0496 -34.0392
   -34.0233 -34.0124 -34.0007 -33.9975 -33.9898 -33.9840 -33.9831 -33.9678
   -33.9632 -33.9626 -33.9584 -33.9543 -33.9521 -33.9503 -33.9434 -33.9286
   -33.9195 -33.9083 -33.8993 -33.8986 -33.8931 -33.8872 -33.8779 -33.8760
   -33.8701 -33.8624 -33.8528 -33.8508 -33.8488 -33.8348 -33.8241 -33.8165
   -33.8072 -33.8042 -33.8035 -33.7981 -33.7965 -33.7870 -33.7865 -33.7719
   -13.5019 -13.1865 -13.0777 -13.0448 -12.9368 -12.9270 -12.9174 -12.9136
   -12.7406 -12.4055 -12.3190 -12.3066 -12.2819 -12.2670 -12.2169 -12.0586
   -12.0578 -12.0534 -12.0529 -12.0389 -12.0371 -12.0319 -12.0236 -12.0203
   -11.9202 -11.9053 -11.9002 -11.8817 -11.8707 -11.8616 -11.7809 -11.7654
   -11.7252 -11.7118 -11.6979 -11.6939 -11.6869 -11.6769 -11.6609  -0.9356
    -0.7959  -0.6595  -0.6059  -0.5431  -0.5350  -0.5204  -0.5138  -0.1760
    -0.1574  -0.1130  -0.0168   0.0375   0.0383   0.0459   0.0483   0.1049
     0.1622   0.2578   0.2979   0.3479   0.3702   0.3808   0.3980   0.4676
     0.4794   0.5194   0.5317   0.5577   0.6111   0.6385   0.6707   0.7184
     0.7430   0.7458   0.7933   0.8340   0.8663   0.8898   0.9405   0.9439
     0.9643   0.9646   1.0093   1.0172   1.0282   1.0421   1.1733   1.3214
     1.4140   1.4751   1.4903   1.5143   1.5287   1.5614   1.5633   1.6906
     1.6935   1.8805   1.9398   1.9712   1.9736   2.0009   2.0104   2.0443
     2.0486   2.1064   2.1148   2.1240   2.1467   2.1515   2.1683   2.1859
     2.1884   2.2410   2.2945   2.3210   2.3486   2.3536   2.4567   2.5058
     2.5457   2.5875   2.6135   2.6327   2.6486   2.7007   2.7527   2.8636
     2.8911   2.9466   3.0116   3.0185   3.0188   3.0679   3.0938   3.2128
     3.3154   3.3493   3.3949   3.4344   3.4557   3.5306   3.5587   3.5772
     3.5996   3.6152   3.6205   3.6423   3.6846   3.7119   3.7345   3.7491
     3.8671   3.8684   3.8755   3.8762   5.7907   6.4018   6.5778   6.6099
     6.7264   6.7552   6.7570   6.7610   6.7798   7.1113   7.1260   7.2558
     7.2917   7.3169   7.4276   7.4346   7.4621   7.4694   7.4784   7.4960
     7.5358   7.5368   7.5601   7.5726   7.5741   7.5778   7.6274   7.6486
     7.7931   7.7981   7.8056   7.8159   7.8333   7.8412   7.8423   7.8827
     7.9379   7.9509   7.9619   7.9889   7.9902   7.9921   8.0834   8.1134
     8.1191

     the Fermi energy is     5.8538 ev

!    total energy              =   -5047.70748681 Ry
     Harris-Foulkes estimate   =   -5047.70748681 Ry
     estimated scf accuracy    <          5.1E-11 Ry

     total all-electron energy =    -36246.276266 Ry

     The total energy is the sum of the following terms:

     one-electron contribution =   -2313.98814463 Ry
     hartree contribution      =    1325.50424097 Ry
     xc contribution           =    -612.03662778 Ry
     ewald contribution        =   -1960.34333531 Ry
     Dispersion Correction     =      -0.51305352 Ry
     Hubbard energy            =       5.71101474 Ry
     one-center paw contrib.   =   -1491.94005531 Ry
     smearing contrib. (-TS)   =      -0.10152597 Ry

     convergence has been achieved in  37 iterations

     negative rho (up, down):  1.276E-03 0.000E+00

     Forces acting on atoms (cartesian axes, Ry/au):

     atom    1 type  1   force =     0.00001557   -0.00015312   -0.00004761
     atom    2 type  1   force =     0.00000000    0.00066809   -0.00000922
     atom    3 type  1   force =     0.00000000    0.00048594   -0.00008865
     atom    4 type  1   force =    -0.00003762    0.00012930   -0.00010331
     atom    5 type  2   force =     0.00000000    0.00019992   -0.00002015
     atom    6 type  2   force =     0.00001695   -0.00022565    0.00010462
     atom    7 type  2   force =    -0.00002124   -0.00004417   -0.00007535
     atom    8 type  2   force =     0.00000000    0.00002624   -0.00014934
     atom    9 type  2   force =    -0.00040866   -0.00063509   -0.00035029
     atom   10 type  2   force =     0.00000000    0.00012073    0.00043484
     atom   11 type  2   force =     0.00000000    0.00015409   -0.00011503
     atom   12 type  2   force =     0.00000000   -0.00048059    0.00002466
     atom   13 type  2   force =     0.00006039    0.00027511   -0.00013173
     atom   14 type  2   force =     0.00008335   -0.00034751    0.00037562
     atom   15 type  1   force =     0.00006422    0.00066659   -0.00020367
     atom   16 type  1   force =     0.00000000   -0.00028202    0.00029472
     atom   17 type  1   force =     0.00000000   -0.00092004   -0.00006228
     atom   18 type  1   force =    -0.00004462    0.00020062   -0.00008809
     atom   19 type  2   force =     0.00000000   -0.00017303    0.00010074
     atom   20 type  2   force =     0.00030841    0.00001013    0.00029079
     atom   21 type  2   force =     0.00052630   -0.00038035   -0.00004147
     atom   22 type  2   force =    -0.00010112   -0.00012726    0.00021069
     atom   23 type  2   force =     0.00000000    0.00042809    0.00034277
     atom   24 type  2   force =     0.00000000    0.00090416    0.00014141
     atom   25 type  2   force =     0.00000000   -0.00046395    0.00020789
     atom   26 type  2   force =    -0.00012325    0.00018375   -0.00000691
     atom   27 type  2   force =     0.00006595   -0.00042627    0.00014388
     atom   28 type  1   force =    -0.00001557   -0.00015312   -0.00004761
     atom   29 type  1   force =     0.00000000    0.00058548   -0.00004280
     atom   30 type  1   force =     0.00000000    0.00035466   -0.00004725
     atom   31 type  1   force =     0.00003762    0.00012930   -0.00010331
     atom   32 type  2   force =     0.00000000    0.00004077   -0.00006864
     atom   33 type  2   force =    -0.00001695   -0.00022565    0.00010462
     atom   34 type  2   force =     0.00002124   -0.00004417   -0.00007535
     atom   35 type  2   force =     0.00000000    0.00035096    0.00002224
     atom   36 type  2   force =     0.00040866   -0.00063509   -0.00035029
     atom   37 type  2   force =     0.00000000    0.00010347   -0.00000137
     atom   38 type  2   force =     0.00000000    0.00013746   -0.00031686
     atom   39 type  2   force =     0.00000000   -0.00025161   -0.00007878
     atom   40 type  2   force =    -0.00006039    0.00027511   -0.00013173
     atom   41 type  2   force =    -0.00008335   -0.00034751    0.00037562
     atom   42 type  1   force =    -0.00006422    0.00066659   -0.00020367
     atom   43 type  1   force =     0.00000000   -0.00049336   -0.00015198
     atom   44 type  1   force =     0.00000000   -0.00039137   -0.00057706
     atom   45 type  1   force =     0.00004462    0.00020062   -0.00008809
     atom   46 type  2   force =     0.00000000   -0.00003117   -0.00014228
     atom   47 type  2   force =    -0.00030841    0.00001013    0.00029079
     atom   48 type  2   force =    -0.00052630   -0.00038035   -0.00004147
     atom   49 type  2   force =     0.00000000   -0.00017568    0.00050420
     atom   50 type  2   force =     0.00010112   -0.00012726    0.00021069
     atom   51 type  2   force =     0.00000000    0.00104421    0.00007191
     atom   52 type  2   force =     0.00000000    0.00068066    0.00015440
     atom   53 type  2   force =     0.00000000   -0.00087423   -0.00058244
     atom   54 type  2   force =     0.00012325    0.00018375   -0.00000691
     atom   55 type  2   force =    -0.00006595   -0.00042627    0.00014388

     Total force =     0.003679     Total SCF correction =     0.000021

     number of scf cycles    =   7
     number of bfgs steps    =   6

     energy   old            =   -5047.7074775864 Ry
     energy   new            =   -5047.7074868124 Ry

     CASE: energy  _new < energy  _old

     new trust radius        =       0.0042470618 bohr
     new conv_thr            =            1.0E-12 Ry


ATOMIC_POSITIONS (angstrom)
V       -0.002642800   1.670710229   7.492924885
V        1.789048327   2.749118618   9.798997192
V        1.789048327   2.734003556   1.708628346
V        0.005044268   1.660923865   4.039057165
O        1.789048240   2.180840833   7.850288716
O       -0.004842347   2.244927213   9.447317295
O       -0.010687991   2.244204802   2.082227372
O        1.789048240   2.143269956   3.656938456
O        0.024969602   0.064869971   4.042864771
O        1.789048376   4.328901107   1.712648270
O        1.789048376   4.340308834   9.789702559
O        1.789048338   2.282045629  -0.015663433
O       -0.003735677   2.133025265   5.764286068
O       -0.004162996   0.077472969   7.494681203
V       -0.005724930   6.137540150   7.473175652
V        1.789048363   7.140773221   9.748187772
V        1.789048363   7.136577101   1.575300752
V       -0.033428913   6.035521010   4.102502897
O        1.789048419   6.611168505   7.868619579
O       -0.014268111   6.623335266   9.439273743
O        0.139649712   6.642009124   2.264051275
O        0.191307252   4.459763236   4.128294720
O        1.789048254   8.732003063   1.558601197
O        1.789048254   8.726544817   9.837711514
O        1.789048325   6.580570210  -0.063800757
O        0.224140933   6.642791618   5.730818909
O       -0.034170813   4.550870464   7.412940991
V        3.580739507   1.670711084   7.492924900
V        5.367145102   2.761079091   9.813442689
V        5.367145102   2.781741202   1.736960797
V        3.573052440   1.660924720   4.039057150
O        5.367145189   2.183452776   7.857946412
O        3.582939054   2.244927474   9.447317377
O        3.588784699   2.244205062   2.082227290
O        5.367145189   2.171186096   3.677399802
O        3.553127106   0.064870672   4.042864577
O        5.367145054   4.387513381   1.778008046
O        5.367145054   4.354980215   9.799454289
O        5.367145091   2.317728166   0.012574824
O        3.581832384   2.133025869   5.764286068
O        3.582259703   0.077473669   7.494681397
V        3.583821637   6.137540370   7.473175587
V        5.367145066   7.103410453   9.842544293
V        5.367145066   7.008340183   1.778871580
V        3.611525621   6.035521230   4.102502962
O        5.367145010   6.656552084   7.772742447
O        3.592364818   6.623335375   9.439273677
O        3.438446995   6.642009233   2.264051341
O        5.367145010   6.423675440   3.781389119
O        3.386789455   4.459763381   4.128294847
O        5.367145175   8.592302888   1.783041157
O        5.367145175   8.689352324   9.910765781
O        5.367145104   6.607103343   0.063601037
O        3.353955774   6.642792143   5.730818909
O        3.612267520   4.550870610   7.412940864



     Writing output data file ovac1.save/
     NEW-OLD atomic charge density approx. for the potential

     Check: negative core charge=   -0.000001

     negative rho (up, down):  1.262E-03 0.000E+00
 Atomic wfc used for LDA+U Projector are NOT orthogonalized

     total cpu time spent up to now is    23556.2 secs

     Self-consistent Calculation

     iteration #  1     ecut=    65.00 Ry     beta= 0.70
     CG style diagonalization
     ethr =  1.00E-06,  avg # of iterations =  2.7
 --- enter write_ns ---
 LDA+U parameters:
U( 1)     =  4.00000000
alpha( 1) =  0.00000000
atom    1   Tr[ns(na)] =   4.57415
[...]
     1.8319   1.8739   1.9295   1.9672   1.9765   2.0062   2.0214   2.0388
     2.0459   2.0668   2.0762   2.1184   2.1331   2.1372   2.1518   2.1746
     2.1918   2.1940   2.2283   2.2667   2.2730   2.3209   2.3452   2.4115
     2.4598   2.4799   2.5124   2.5639   2.5989   2.7132   2.7152   2.7504
     2.8562   2.8825   2.8907   2.9705   2.9830   3.0323   3.0856   3.2102
     3.2225   3.2824   3.3121   3.3309   3.4299   3.4905   3.5177   3.5495
     3.6532   3.6605   3.6965   3.7350   3.8538   3.8649   3.8686   3.8800
     3.9075   3.9099   3.9237   3.9278   5.7951   6.3766   6.5732   6.5942
     6.6372   6.6593   6.7927   6.7974   6.8107   7.0612   7.0947   7.2337
     7.2540   7.3134   7.3606   7.3917   7.4038   7.4065   7.4530   7.4737
     7.4984   7.5338   7.5619   7.5809   7.5838   7.6387   7.6675   7.7374
     7.7456   7.7521   7.7619   7.7802   7.8040   7.8446   7.8611   7.8838
     7.9056   7.9243   7.9807   8.0049   8.0118   8.0493   8.0824   8.1412
     8.1779

          k =-0.5000 0.0000-0.3100 ( 43392 PWs)   bands (ev):

   -60.2436 -60.1345 -60.1298 -60.1248 -60.0861 -60.0508 -60.0072 -59.9953
   -59.9925 -59.9889 -59.9868 -59.9867 -59.9736 -59.9639 -59.9626 -59.9266
   -34.2783 -34.1199 -34.1128 -34.1047 -34.0931 -34.0920 -34.0487 -34.0366
   -34.0210 -34.0185 -33.9980 -33.9950 -33.9873 -33.9855 -33.9817 -33.9704
   -33.9670 -33.9643 -33.9619 -33.9550 -33.9522 -33.9483 -33.9471 -33.9232
   -33.9224 -33.9058 -33.9012 -33.8971 -33.8950 -33.8893 -33.8788 -33.8748
   -33.8693 -33.8646 -33.8549 -33.8513 -33.8496 -33.8338 -33.8257 -33.8184
   -33.8091 -33.8060 -33.8034 -33.8003 -33.7991 -33.7895 -33.7891 -33.7689
   -13.5005 -13.1947 -13.0922 -13.0606 -12.9287 -12.9241 -12.9063 -12.8994
   -12.7386 -12.4085 -12.3228 -12.3111 -12.2787 -12.2727 -12.2170 -12.0634
   -12.0586 -12.0534 -12.0459 -12.0371 -12.0347 -12.0324 -12.0265 -12.0194
   -11.9214 -11.9016 -11.9000 -11.8831 -11.8752 -11.8629 -11.7820 -11.7695
   -11.7317 -11.7190 -11.7101 -11.6853 -11.6728 -11.6603 -11.6341  -0.9300
    -0.7959  -0.6616  -0.6035  -0.5454  -0.5336  -0.5170  -0.5124  -0.2824
    -0.2087  -0.1471  -0.1095  -0.0513  -0.0103   0.0287   0.0558   0.0713
     0.0764   0.0954   0.1006   0.2303   0.3164   0.3383   0.3431   0.3917
     0.4413   0.4617   0.5097   0.5518   0.5541   0.5622   0.6038   0.6565
     0.6641   0.6739   0.8392   0.8575   0.8971   0.9149   1.0320   1.1175
     1.1451   1.1870   1.1992   1.2945   1.3107   1.3613   1.4016   1.4223
     1.4256   1.4361   1.4559   1.5651   1.7698   1.7935   1.8496   1.8900
     1.9226   1.9688   1.9862   1.9932   1.9993   2.0126   2.0421   2.0525
     2.0767   2.0873   2.1001   2.1170   2.1193   2.1396   2.1586   2.1756
     2.1838   2.1965   2.2227   2.2230   2.2508   2.3602   2.3986   2.4162
     2.4422   2.4974   2.5027   2.5181   2.5499   2.5752   2.6019   2.6566
     2.6700   2.7691   2.9069   3.0138   3.1056   3.1159   3.1518   3.1585
     3.2164   3.2459   3.2743   3.2781   3.4585   3.5030   3.5254   3.5960
     3.6481   3.6693   3.6816   3.6884   3.8681   3.8700   3.8864   3.8989
     3.9128   3.9187   3.9273   3.9316   5.8048   6.4005   6.5752   6.6097
     6.7166   6.7473   6.7527   6.7533   6.7828   7.1117   7.1147   7.2357
     7.2545   7.2755   7.3597   7.3711   7.4336   7.4342   7.4797   7.4897
     7.5099   7.5182   7.5664   7.5728   7.5964   7.6340   7.6564   7.6726
     7.6974   7.7546   7.7650   7.8161   7.8420   7.8430   7.8614   7.8709
     7.9308   7.9333   7.9572   7.9598   7.9661   7.9884   8.0648   8.0744
     8.0956

          k =-0.5000-0.4061 0.0000 ( 43484 PWs)   bands (ev):

   -60.2436 -60.1345 -60.1298 -60.1248 -60.0861 -60.0508 -60.0072 -59.9953
   -59.9925 -59.9886 -59.9870 -59.9867 -59.9736 -59.9639 -59.9626 -59.9266
   -34.2783 -34.1200 -34.1133 -34.1043 -34.0932 -34.0920 -34.0490 -34.0366
   -34.0212 -34.0186 -33.9979 -33.9966 -33.9855 -33.9839 -33.9812 -33.9709
   -33.9666 -33.9657 -33.9604 -33.9552 -33.9517 -33.9482 -33.9467 -33.9264
   -33.9231 -33.9090 -33.9065 -33.8973 -33.8885 -33.8838 -33.8766 -33.8723
   -33.8691 -33.8678 -33.8559 -33.8499 -33.8493 -33.8337 -33.8296 -33.8227
   -33.8139 -33.8049 -33.8030 -33.8006 -33.7985 -33.7879 -33.7851 -33.7690
   -13.5009 -13.2117 -13.0385 -13.0325 -12.9866 -12.9831 -12.8534 -12.8514
   -12.7370 -12.4583 -12.3618 -12.2851 -12.2719 -12.2188 -12.2159 -12.1367
   -12.1299 -12.0516 -12.0415 -12.0393 -12.0321 -12.0242 -11.9808 -11.9782
   -11.9145 -11.8959 -11.8956 -11.8698 -11.8652 -11.8502 -11.7752 -11.7745
   -11.7284 -11.7155 -11.7089 -11.7038 -11.6860 -11.6845 -11.6582  -0.9283
    -0.7880  -0.6540  -0.6097  -0.5401  -0.5308  -0.5149  -0.5073  -0.1671
    -0.1540  -0.1091  -0.0602   0.0113   0.0440   0.0976   0.1040   0.1287
     0.1473   0.2143   0.2166   0.2592   0.3042   0.3757   0.4558   0.4759
     0.5085   0.5347   0.5824   0.5909   0.6234   0.6391   0.7063   0.7462
     0.7512   0.7721   0.7725   0.7870   0.7871   0.8646   0.9035   0.9065
     0.9664   1.0074   1.0359   1.0500   1.0970   1.1064   1.2074   1.3020
     1.4532   1.4578   1.4836   1.5090   1.6274   1.6806   1.6957   1.7420
     1.7574   1.7946   1.7969   1.8191   1.8330   1.8547   1.8570   1.9051
     1.9112   2.0872   2.0972   2.1111   2.1136   2.1416   2.1931   2.1932
     2.2050   2.2600   2.3178   2.3746   2.3842   2.4569   2.4820   2.5204
     2.5804   2.6645   2.6702   2.7018   2.7451   2.7528   2.8050   2.8827
     2.9125   2.9148   2.9308   3.0593   3.0641   3.1196   3.1418   3.2497
     3.2902   3.3439   3.3597   3.4553   3.4716   3.4769   3.4997   3.5324
     3.5668   3.5882   3.6458   3.6468   3.6599   3.6855   3.7511   3.7613
     3.8583   3.8603   3.8897   3.8933   5.7896   6.3829   6.5861   6.6092
     6.6392   6.6607   6.7876   6.7916   6.8192   7.0545   7.1108   7.2592
     7.3146   7.3229   7.3900   7.4082   7.4130   7.4366   7.4504   7.4605
     7.4986   7.5100   7.5483   7.5551   7.6264   7.6294   7.7074   7.7237
     7.7366   7.7424   7.7558   7.7873   7.8024   7.8568   7.8699   7.8997
     7.9364   7.9428   7.9847   8.0192   8.0371   8.0394   8.0673   8.0873
     8.1983

          k =-0.5000-0.4061-0.3100 ( 43472 PWs)   bands (ev):

   -60.2436 -60.1345 -60.1298 -60.1248 -60.0861 -60.0508 -60.0072 -59.9953
   -59.9925 -59.9889 -59.9868 -59.9867 -59.9736 -59.9639 -59.9626 -59.9266
   -34.2783 -34.1199 -34.1128 -34.1047 -34.0932 -34.0920 -34.0487 -34.0366
   -34.0210 -34.0185 -33.9980 -33.9950 -33.9873 -33.9855 -33.9816 -33.9703
   -33.9670 -33.9644 -33.9620 -33.9550 -33.9523 -33.9484 -33.9472 -33.9234
   -33.9225 -33.9058 -33.9012 -33.8971 -33.8951 -33.8893 -33.8788 -33.8749
   -33.8693 -33.8646 -33.8549 -33.8513 -33.8497 -33.8338 -33.8257 -33.8185
   -33.8092 -33.8061 -33.8034 -33.8003 -33.7991 -33.7895 -33.7891 -33.7690
   -13.4973 -13.1855 -13.0781 -13.0420 -12.9367 -12.9288 -12.9170 -12.9145
   -12.7396 -12.4060 -12.3177 -12.3073 -12.2783 -12.2650 -12.2158 -12.0606
   -12.0582 -12.0541 -12.0529 -12.0377 -12.0350 -12.0326 -12.0256 -12.0221
   -11.9183 -11.9018 -11.8983 -11.8778 -11.8664 -11.8614 -11.7779 -11.7703
   -11.7291 -11.7164 -11.6988 -11.6988 -11.6881 -11.6787 -11.6571  -0.9289
    -0.7952  -0.6574  -0.6049  -0.5436  -0.5331  -0.5189  -0.5125  -0.1722
    -0.1553  -0.1088  -0.0134   0.0367   0.0381   0.0447   0.0462   0.1036
     0.1607   0.2589   0.2941   0.3488   0.3730   0.3845   0.3989   0.4639
     0.4768   0.5191   0.5301   0.5565   0.6138   0.6318   0.6727   0.7187
     0.7379   0.7437   0.7964   0.8321   0.8635   0.8874   0.9432   0.9466
     0.9650   0.9651   1.0142   1.0217   1.0356   1.0494   1.1735   1.3115
     1.4058   1.4790   1.4866   1.5226   1.5358   1.5626   1.5724   1.6874
     1.6916   1.8810   1.9397   1.9729   1.9739   2.0055   2.0134   2.0448
     2.0471   2.1120   2.1147   2.1292   2.1475   2.1510   2.1715   2.1857
     2.1887   2.2435   2.2953   2.3228   2.3480   2.3522   2.4598   2.5087
     2.5484   2.5852   2.6094   2.6299   2.6491   2.7068   2.7549   2.8639
     2.8958   2.9482   3.0078   3.0139   3.0156   3.0680   3.1002   3.2144
     3.3132   3.3506   3.3946   3.4295   3.4585   3.5333   3.5606   3.5781
     3.5984   3.6138   3.6198   3.6406   3.6877   3.7136   3.7368   3.7460
     3.8632   3.8654   3.8718   3.8752   5.7973   6.4050   6.5811   6.6132
     6.7217   6.7491   6.7553   6.7580   6.7852   7.1120   7.1197   7.2525
     7.2893   7.3130   7.4246   7.4276   7.4553   7.4666   7.4713   7.4892
     7.5308   7.5311   7.5569   7.5677   7.5696   7.5722   7.6239   7.6455
     7.7841   7.7925   7.8018   7.8084   7.8315   7.8348   7.8366   7.8785
     7.9330   7.9457   7.9581   7.9798   7.9868   7.9902   8.0745   8.1061
     8.1090

     the Fermi energy is     5.8557 ev

!    total energy              =   -5047.70759035 Ry
     Harris-Foulkes estimate   =   -5047.70759035 Ry
     estimated scf accuracy    <          8.8E-13 Ry

     total all-electron energy =    -36246.276369 Ry

     The total energy is the sum of the following terms:

     one-electron contribution =   -2313.74620237 Ry
     hartree contribution      =    1325.38311414 Ry
     xc contribution           =    -612.02947717 Ry
     ewald contribution        =   -1960.47119776 Ry
     Dispersion Correction     =      -0.51308741 Ry
     Hubbard energy            =       5.71115566 Ry
     one-center paw contrib.   =   -1491.93995384 Ry
     smearing contrib. (-TS)   =      -0.10194160 Ry

     convergence has been achieved in  24 iterations

     negative rho (up, down):  1.467E-03 0.000E+00

     Forces acting on atoms (cartesian axes, Ry/au):

     atom    1 type  1   force =     0.00000017   -0.00002958   -0.00000265
     atom    2 type  1   force =     0.00000000   -0.00006830   -0.00000450
     atom    3 type  1   force =     0.00000000    0.00003691   -0.00000206
     atom    4 type  1   force =     0.00000472    0.00005633    0.00000391
     atom    5 type  2   force =     0.00000000   -0.00001372    0.00001157
     atom    6 type  2   force =    -0.00000382   -0.00000001   -0.00001125
     atom    7 type  2   force =    -0.00000013   -0.00000071    0.00000397
     atom    8 type  2   force =     0.00000000    0.00003336    0.00001333
     atom    9 type  2   force =     0.00002631   -0.00004482   -0.00000991
     atom   10 type  2   force =     0.00000000    0.00002265    0.00000611
     atom   11 type  2   force =     0.00000000    0.00008325   -0.00001777
     atom   12 type  2   force =     0.00000000   -0.00001794    0.00000438
     atom   13 type  2   force =     0.00000813    0.00002336   -0.00000448
     atom   14 type  2   force =     0.00000871   -0.00000511    0.00001209
     atom   15 type  1   force =    -0.00005140    0.00001964   -0.00001159
     atom   16 type  1   force =     0.00000000   -0.00002482   -0.00003346
     atom   17 type  1   force =     0.00000000   -0.00008906   -0.00003225
     atom   18 type  1   force =     0.00002332   -0.00004070    0.00001930
     atom   19 type  2   force =     0.00000000    0.00005425    0.00009938
     atom   20 type  2   force =    -0.00001896    0.00003277    0.00000996
     atom   21 type  2   force =    -0.00000077    0.00000877   -0.00008029
     atom   22 type  2   force =    -0.00000293   -0.00001658    0.00002435
     atom   23 type  2   force =     0.00000000    0.00008029   -0.00003573
     atom   24 type  2   force =     0.00000000   -0.00006560    0.00002568
     atom   25 type  2   force =     0.00000000    0.00004595   -0.00000733
     atom   26 type  2   force =    -0.00000677    0.00004250    0.00005904
     atom   27 type  2   force =    -0.00002480   -0.00006376    0.00000948
     atom   28 type  1   force =    -0.00000017   -0.00002958   -0.00000265
     atom   29 type  1   force =     0.00000000    0.00001181   -0.00002113
     atom   30 type  1   force =     0.00000000   -0.00006264   -0.00000657
     atom   31 type  1   force =    -0.00000472    0.00005633    0.00000391
     atom   32 type  2   force =     0.00000000    0.00002574   -0.00002697
     atom   33 type  2   force =     0.00000382   -0.00000001   -0.00001125
     atom   34 type  2   force =     0.00000013   -0.00000071    0.00000397
     atom   35 type  2   force =     0.00000000    0.00001899    0.00002258
     atom   36 type  2   force =    -0.00002631   -0.00004482   -0.00000991
     atom   37 type  2   force =     0.00000000    0.00004423   -0.00000463
     atom   38 type  2   force =     0.00000000    0.00004614   -0.00000565
     atom   39 type  2   force =     0.00000000    0.00001249   -0.00001586
     atom   40 type  2   force =    -0.00000813    0.00002336   -0.00000448
     atom   41 type  2   force =    -0.00000871   -0.00000511    0.00001209
     atom   42 type  1   force =     0.00005140    0.00001964   -0.00001159
     atom   43 type  1   force =     0.00000000   -0.00006819    0.00008957
     atom   44 type  1   force =     0.00000000   -0.00006637   -0.00003123
     atom   45 type  1   force =    -0.00002332   -0.00004070    0.00001930
     atom   46 type  2   force =     0.00000000   -0.00004458   -0.00001248
     atom   47 type  2   force =     0.00001896    0.00003277    0.00000996
     atom   48 type  2   force =     0.00000077    0.00000877   -0.00008029
     atom   49 type  2   force =     0.00000000   -0.00002292   -0.00000912
     atom   50 type  2   force =     0.00000293   -0.00001658    0.00002435
     atom   51 type  2   force =     0.00000000    0.00008837    0.00005100
     atom   52 type  2   force =     0.00000000   -0.00000322   -0.00001182
     atom   53 type  2   force =     0.00000000   -0.00002126   -0.00008892
     atom   54 type  2   force =     0.00000677    0.00004250    0.00005904
     atom   55 type  2   force =     0.00002480   -0.00006376    0.00000948

     Total force =     0.000413     Total SCF correction =     0.000003

     bfgs converged in  30 scf cycles and  29 bfgs steps
     (criteria: energy <  1.0E-04 Ry, force <  1.0E-04 Ry/Bohr)

     End of BFGS Geometry Optimization

     Final energy   =   -5047.7075903450 Ry
Begin final coordinates

ATOMIC_POSITIONS (angstrom)
V       -0.002205309   1.668129142   7.493267168
V        1.789048327   2.752827564   9.797657560
V        1.789048327   2.736033338   1.709013530
V        0.002732361   1.657928544   4.035648579
O        1.789048240   2.181612750   7.850099243
O       -0.005098583   2.247504594   9.446724791
O       -0.012100187   2.247463111   2.080576751
O        1.789048240   2.134121998   3.652871400
O        0.011855504   0.061806041   4.032380152
O        1.789048376   4.331268578   1.721072857
O        1.789048376   4.344014516   9.785110191
O        1.789048338   2.286420152  -0.015498151
O       -0.001618228   2.124582324   5.763282898
O       -0.002993904   0.074494569   7.502925675
V       -0.004654879   6.146373355   7.471175550
V        1.789048363   7.143587162   9.751300876
V        1.789048363   7.125620644   1.575252701
V       -0.034379586   6.033566895   4.104814969
O        1.789048419   6.617920608   7.869980052
O       -0.013477721   6.626938419   9.439713095
O        0.140036495   6.630954386   2.264762177
O        0.191961816   4.457955415   4.140568298
O        1.789048254   8.721211249   1.561816806
O        1.789048254   8.729133789   9.848992844
O        1.789048325   6.570812416  -0.064377369
O        0.226496666   6.652241791   5.728491972
O       -0.031712535   4.559612810   7.408143240
V        3.580302016   1.668129997   7.493267183
V        5.367145102   2.766816503   9.809846875
V        5.367145102   2.789463670   1.736738246
V        3.575364347   1.657929399   4.035648564
O        5.367145189   2.182384302   7.855944218
O        3.583195290   2.247504855   9.446724873
O        3.590196895   2.247463371   2.080576669
O        5.367145189   2.177916899   3.677260090
O        3.566241204   0.061806742   4.032379958
O        5.367145054   4.395813930   1.783732238
O        5.367145054   4.360737705   9.786911650
O        5.367145091   2.330374661   0.011366034
O        3.579714935   2.124582928   5.763282898
O        3.581090611   0.074495269   7.502925869
V        3.582751586   6.146373575   7.471175485
V        5.367145066   7.103401287   9.842353238
V        5.367145066   6.996316011   1.774473535
V        3.612476294   6.033567115   4.104815034
O        5.367145010   6.662600221   7.772401535
O        3.591574428   6.626938528   9.439713029
O        3.438060212   6.630954495   2.264762243
O        5.367145010   6.419442119   3.785091192
O        3.386134891   4.457955560   4.140568425
O        5.367145175   8.580580706   1.775083092
O        5.367145175   8.688871643   9.924095150
O        5.367145104   6.592066238   0.060196065
O        3.351600041   6.652242316   5.728491972
O        3.609809242   4.559612956   7.408143113
End final coordinates



     Writing output data file ovac1.save/

     init_run     :    133.92s CPU    134.97s WALL (       1 calls)
     electrons    : 305497.07s CPU 308530.24s WALL (      24 calls)
     update_pot   :     59.38s CPU     59.69s WALL (      23 calls)
     forces       :   2979.58s CPU   2998.84s WALL (      24 calls)

     Called by init_run:
     wfcinit      :    128.15s CPU    128.85s WALL (       1 calls)
     potinit      :      0.90s CPU      0.99s WALL (       1 calls)
     hinit0       :      1.57s CPU      1.60s WALL (       1 calls)

     Called by electrons:
     c_bands      : 287100.30s CPU 289708.76s WALL (     807 calls)
     sum_band     :  16341.75s CPU  16583.49s WALL (     807 calls)
     v_of_rho     :    118.92s CPU    132.68s WALL (     808 calls)
     newd         :   1560.92s CPU   1730.06s WALL (     808 calls)
     PAW_pot      :    379.27s CPU    379.93s WALL (     831 calls)
     mix_rho      :     31.50s CPU     33.00s WALL (     807 calls)

     Called by c_bands:
     init_us_2    :    215.64s CPU    216.74s WALL (   13680 calls)
     ccgdiagg     : 243156.57s CPU 245590.71s WALL (    6462 calls)
     wfcrot       :  43776.35s CPU  43946.88s WALL (    6094 calls)

     Called by sum_band:
     sum_band:bec :     35.04s CPU     35.22s WALL (    6640 calls)
     addusdens    :   1570.83s CPU   1739.24s WALL (     807 calls)

     Called by *cgdiagg:
     h_psi        : 131248.63s CPU 132508.27s WALL ( 5254485 calls)
     s_psi        :  86825.02s CPU  87342.32s WALL (10503260 calls)
     cdiaghg      :    290.20s CPU    297.32s WALL (    6094 calls)

     Called by h_psi:
     h_psi:pot    : 118712.73s CPU 119855.95s WALL ( 5254485 calls)
     h_psi:calbec :  55702.13s CPU  56495.86s WALL ( 5254485 calls)
     vloc_psi     :  13845.93s CPU  13998.26s WALL ( 5254485 calls)
     add_vuspsi   :  49066.78s CPU  49322.69s WALL ( 5254485 calls)
     vhpsi        :  12342.44s CPU  12474.04s WALL ( 5254485 calls)
     hs_1psi      : 141131.25s CPU 142462.83s WALL ( 5248391 calls)
     s_1psi       :  79175.19s CPU  80062.93s WALL ( 5248391 calls)

     General routines
     calbec       : 121992.13s CPU 123732.15s WALL (15866841 calls)
     fft          :    121.56s CPU    132.94s WALL (   10766 calls)
     ffts         :      5.70s CPU      6.05s WALL (    1615 calls)
     fftw         :  13207.89s CPU  13345.00s WALL (15438258 calls)
     interpolate  :     11.73s CPU     12.51s WALL (     808 calls)
     davcio       :      0.00s CPU      0.02s WALL (       8 calls)

     Parallel routines
     fft_scatt_xy :   1110.20s CPU   1122.58s WALL (15450639 calls)
     fft_scatt_yz :   8249.10s CPU   8358.08s WALL (15450639 calls)

     Hubbard U routines
     new_ns       :    621.07s CPU    625.13s WALL (     807 calls)
     vhpsi        :  12342.44s CPU  12474.04s WALL ( 5254485 calls)
     force_hub    :   1362.60s CPU   1367.29s WALL (      24 calls)

     PWSCF        :   3d14h 5m CPU   3d14h56m WALL


   This run was terminated on:   9:26: 7  10Jun2024            

=------------------------------------------------------------------------------=
   JOB DONE.
=------------------------------------------------------------------------------=
