
     Program PWSCF v.6.4.1 starts on 17May2024 at 22:14:31 

     This program is part of the open-source Quantum ESPRESSO suite
     for quantum simulation of materials; please cite
         "P. Giannozzi et al., J. Phys.:Condens. Matter 21 395502 (2009);
         "P. Giannozzi et al., J. Phys.:Condens. Matter 29 465901 (2017);
          URL http://www.quantum-espresso.org", 
     in publications or presentations arising from this work. More details at
     http://www.quantum-espresso.org/quote

     Parallel version (MPI), running on    32 processors

     MPI processes distributed on     1 nodes
     R & G space division:  proc/nbgrp/npool/nimage =      32
     Reading input from v2o5.vc-rlx.in

     Current dimensions of program PWSCF are:
     Max number of different atomic species (ntypx) = 10
     Max number of k-points (npk) =  40000
     Max angular momentum in pseudopotentials (lmaxx) =  3

     -------------------------------------------------
     Parameters for Dispersion (Grimme-D2) Correction:
     -------------------------------------------------
       atom      VdW radius       C_6     

        V          2.952        374.666
        O          2.536         24.284

     Subspace diagonalization in iterative solution of the eigenvalue problem:
     one sub-group per band group will be used
     ELPA distributed-memory algorithm (size of sub-group:  4*  4 procs)


     Parallelization info
     --------------------
     sticks:   dense  smooth     PW     G-vecs:    dense   smooth      PW
     Min          50      50     13                 4440     4440     625
     Max          51      51     14                 4455     4455     638
     Sum        1619    1619    439               142307   142307   20207



     bravais-lattice index     =            8
     lattice parameter (alat)  =       6.6827  a.u.
     unit-cell volume          =    1233.5773 (a.u.)^3
     number of atoms/cell      =           14
     number of atomic types    =            2
     number of electrons       =       112.00
     number of Kohn-Sham states=           56
     kinetic-energy cutoff     =      90.0000  Ry
     charge density cutoff     =     360.0000  Ry
     convergence threshold     =      1.0E-10
     mixing beta               =       0.7000
     number of iterations used =            8  plain     mixing
     Exchange-correlation      = PBE ( 1  4  3  4 0 0)
     nstep                     =          500


     celldm(1)=   6.682682  celldm(2)=   1.263659  celldm(3)=   3.271025
     celldm(4)=   0.000000  celldm(5)=   0.000000  celldm(6)=   0.000000

     crystal axes: (cart. coord. in units of alat)
               a(1) = (   1.000000   0.000000   0.000000 )  
               a(2) = (   0.000000   1.263659   0.000000 )  
               a(3) = (   0.000000   0.000000   3.271025 )  

     reciprocal axes: (cart. coord. in units 2 pi/alat)
               b(1) = (  1.000000  0.000000  0.000000 )  
               b(2) = (  0.000000  0.791352  0.000000 )  
               b(3) = (  0.000000  0.000000  0.305715 )  


     PseudoPot. # 1 for V  read from file:
     /home/mpicuntureo/pseudos/v.nc.upf
     MD5 check sum: 40fb93c06b4f9d8c28c5ccd071294a04
     Pseudo is Norm-conserving + core correction, Zval = 13.0
     Generated using ONCVPSP code by D. R. Hamann
     Using radial grid of 1536 points,  6 beta functions with: 
                l(1) =   0
                l(2) =   0
                l(3) =   1
                l(4) =   1
                l(5) =   2
                l(6) =   2

     PseudoPot. # 2 for O  read from file:
     /home/mpicuntureo/pseudos/o.nc.upf
     MD5 check sum: 3e3f909f7470e8921608ab6b1f57bbae
     Pseudo is Norm-conserving + core correction, Zval =  6.0
     Generated using ONCVPSP code by D. R. Hamann
     Using radial grid of  936 points,  5 beta functions with: 
                l(1) =   0
                l(2) =   0
                l(3) =   1
                l(4) =   1
                l(5) =   2

     atomic species   valence    mass     pseudopotential
        V             13.00    50.94150     V ( 1.00)
        O              6.00    15.99940     O ( 1.00)

      8 Sym. Ops., with inversion, found ( 4 have fractional translation)



   Cartesian axes

     site n.     atom                  positions (alat units)
         1           V   tau(   1) = (   0.0000000   0.4838420   2.1198804  )
         2           V   tau(   2) = (   0.5000000   0.7798175   2.7866567  )
         3           V   tau(   3) = (   0.5000000   0.7798175   0.4843680  )
         4           V   tau(   4) = (   0.0000000   0.4838420   1.1511443  )
         5           O   tau(   5) = (   0.5000000   0.6221939   2.2285187  )
         6           O   tau(   6) = (   0.0000000   0.6414656   2.6780184  )
         7           O   tau(   7) = (   0.0000000   0.6414656   0.5930063  )
         8           O   tau(   8) = (   0.5000000   0.6221939   1.0425060  )
         9           O   tau(   9) = (   0.0000000   0.0364742   1.1584929  )
        10           O   tau(  10) = (   0.5000000   1.2271853   0.4770194  )
        11           O   tau(  11) = (   0.5000000   1.2271853   2.7940053  )
        12           O   tau(  12) = (   0.5000000   0.6433842   0.0000000  )
        13           O   tau(  13) = (   0.0000000   0.6202753   1.6355124  )
        14           O   tau(  14) = (   0.0000000   0.0364742   2.1125318  )

     number of k points=     4
                       cart. coord. in units 2pi/alat
        k(    1) = (   0.0000000   0.0000000   0.0000000), wk =   0.2222222
        k(    2) = (   0.0000000   0.2637841   0.0000000), wk =   0.4444444
        k(    3) = (   0.3333333   0.0000000   0.0000000), wk =   0.4444444
        k(    4) = (   0.3333333   0.2637841   0.0000000), wk =   0.8888889

     Dense  grid:   142307 G-vectors     FFT dimensions: (  48,  54, 144)

     Estimated max dynamical RAM per process >      17.54 MB

     Estimated total dynamical RAM >     561.40 MB

     Initial potential from superposition of free atoms

     starting charge  111.99579, renormalised to  112.00000
     Starting wfcs are   80 randomized atomic wfcs

     total cpu time spent up to now is        1.1 secs

     Self-consistent Calculation

     iteration #  1     ecut=    90.00 Ry     beta= 0.70
     Davidson diagonalization with overlap
     ethr =  1.00E-02,  avg # of iterations =  2.0

     total cpu time spent up to now is        1.8 secs

     total energy              =    -917.44622279 Ry
     Harris-Foulkes estimate   =    -923.62509354 Ry
     estimated scf accuracy    <       7.75558223 Ry

     iteration #  2     ecut=    90.00 Ry     beta= 0.70
     Davidson diagonalization with overlap
     ethr =  6.92E-03,  avg # of iterations =  6.2

     total cpu time spent up to now is        3.0 secs

     total energy              =    -908.11076963 Ry
     Harris-Foulkes estimate   =    -938.53997052 Ry
     estimated scf accuracy    <     136.20731702 Ry

     iteration #  3     ecut=    90.00 Ry     beta= 0.70
     Davidson diagonalization with overlap
     ethr =  6.92E-03,  avg # of iterations =  5.8

     total cpu time spent up to now is        4.2 secs

     total energy              =    -921.91118825 Ry
     Harris-Foulkes estimate   =    -922.67739286 Ry
     estimated scf accuracy    <       2.56151555 Ry

     iteration #  4     ecut=    90.00 Ry     beta= 0.70
     Davidson diagonalization with overlap
     ethr =  2.29E-03,  avg # of iterations =  3.8

     total cpu time spent up to now is        4.9 secs

     total energy              =    -922.06586653 Ry
     Harris-Foulkes estimate   =    -922.19732215 Ry
     estimated scf accuracy    <       0.84102442 Ry

     iteration #  5     ecut=    90.00 Ry     beta= 0.70
     Davidson diagonalization with overlap
     ethr =  7.51E-04,  avg # of iterations =  4.0

     total cpu time spent up to now is        5.5 secs

     total energy              =    -922.00992931 Ry
     Harris-Foulkes estimate   =    -922.13019830 Ry
     estimated scf accuracy    <       0.41360723 Ry

     iteration #  6     ecut=    90.00 Ry     beta= 0.70
     Davidson diagonalization with overlap
     ethr =  3.69E-04,  avg # of iterations =  4.2

     total cpu time spent up to now is        6.3 secs

     total energy              =    -922.13108189 Ry
     Harris-Foulkes estimate   =    -922.14688550 Ry
     estimated scf accuracy    <       0.16340322 Ry

     iteration #  7     ecut=    90.00 Ry     beta= 0.70
     Davidson diagonalization with overlap
     ethr =  1.46E-04,  avg # of iterations =  2.0

     total cpu time spent up to now is        6.8 secs

     total energy              =    -922.10797712 Ry
     Harris-Foulkes estimate   =    -922.13352068 Ry
     estimated scf accuracy    <       0.12269958 Ry

     iteration #  8     ecut=    90.00 Ry     beta= 0.70
     Davidson diagonalization with overlap
     ethr =  1.10E-04,  avg # of iterations =  3.8

     total cpu time spent up to now is        7.5 secs

     total energy              =    -922.12549647 Ry
     Harris-Foulkes estimate   =    -922.12634202 Ry
     estimated scf accuracy    <       0.00241767 Ry

     iteration #  9     ecut=    90.00 Ry     beta= 0.70
     Davidson diagonalization with overlap
     ethr =  2.16E-06,  avg # of iterations =  5.8

     total cpu time spent up to now is        8.5 secs

     total energy              =    -922.12707560 Ry
     Harris-Foulkes estimate   =    -922.12733560 Ry
     estimated scf accuracy    <       0.00184514 Ry

     iteration # 10     ecut=    90.00 Ry     beta= 0.70
     Davidson diagonalization with overlap
     ethr =  1.65E-06,  avg # of iterations =  3.0

     total cpu time spent up to now is        9.0 secs

     total energy              =    -922.12697402 Ry
     Harris-Foulkes estimate   =    -922.12717193 Ry
     estimated scf accuracy    <       0.00096468 Ry

     iteration # 11     ecut=    90.00 Ry     beta= 0.70
     Davidson diagonalization with overlap
     ethr =  8.61E-07,  avg # of iterations =  4.0

     total cpu time spent up to now is        9.7 secs

     total energy              =    -922.12710348 Ry
     Harris-Foulkes estimate   =    -922.12711851 Ry
     estimated scf accuracy    <       0.00004674 Ry

     iteration # 12     ecut=    90.00 Ry     beta= 0.70
     Davidson diagonalization with overlap
     ethr =  4.17E-08,  avg # of iterations =  5.0

     total cpu time spent up to now is       10.6 secs

     total energy              =    -922.12712534 Ry
     Harris-Foulkes estimate   =    -922.12712828 Ry
     estimated scf accuracy    <       0.00002400 Ry

     iteration # 13     ecut=    90.00 Ry     beta= 0.70
     Davidson diagonalization with overlap
     ethr =  2.14E-08,  avg # of iterations =  2.0

     total cpu time spent up to now is       11.1 secs

     total energy              =    -922.12712397 Ry
     Harris-Foulkes estimate   =    -922.12712597 Ry
     estimated scf accuracy    <       0.00001597 Ry

     iteration # 14     ecut=    90.00 Ry     beta= 0.70
     Davidson diagonalization with overlap
     ethr =  1.43E-08,  avg # of iterations =  4.0

     total cpu time spent up to now is       11.7 secs

     total energy              =    -922.12712481 Ry
     Harris-Foulkes estimate   =    -922.12712528 Ry
     estimated scf accuracy    <       0.00000395 Ry

     iteration # 15     ecut=    90.00 Ry     beta= 0.70
     Davidson diagonalization with overlap
     ethr =  3.53E-09,  avg # of iterations =  4.0

     total cpu time spent up to now is       12.4 secs

     total energy              =    -922.12712559 Ry
     Harris-Foulkes estimate   =    -922.12712565 Ry
     estimated scf accuracy    <       0.00000120 Ry

     iteration # 16     ecut=    90.00 Ry     beta= 0.70
     Davidson diagonalization with overlap
     ethr =  1.07E-09,  avg # of iterations =  1.8

     total cpu time spent up to now is       12.9 secs

     total energy              =    -922.12712530 Ry
     Harris-Foulkes estimate   =    -922.12712561 Ry
     estimated scf accuracy    <       0.00000104 Ry

     iteration # 17     ecut=    90.00 Ry     beta= 0.70
     Davidson diagonalization with overlap
     ethr =  9.28E-10,  avg # of iterations =  4.5

     total cpu time spent up to now is       13.6 secs

     total energy              =    -922.12712547 Ry
     Harris-Foulkes estimate   =    -922.12712552 Ry
     estimated scf accuracy    <       0.00000043 Ry

     iteration # 18     ecut=    90.00 Ry     beta= 0.70
     Davidson diagonalization with overlap
     ethr =  3.87E-10,  avg # of iterations =  3.0

     total cpu time spent up to now is       14.1 secs

     total energy              =    -922.12712545 Ry
     Harris-Foulkes estimate   =    -922.12712549 Ry
     estimated scf accuracy    <       0.00000029 Ry

     iteration # 19     ecut=    90.00 Ry     beta= 0.70
     Davidson diagonalization with overlap
     ethr =  2.63E-10,  avg # of iterations =  3.2

     total cpu time spent up to now is       14.7 secs

     total energy              =    -922.12712543 Ry
     Harris-Foulkes estimate   =    -922.12712546 Ry
     estimated scf accuracy    <       0.00000015 Ry

     iteration # 20     ecut=    90.00 Ry     beta= 0.70
     Davidson diagonalization with overlap
     ethr =  1.37E-10,  avg # of iterations =  4.0

     total cpu time spent up to now is       15.3 secs

     total energy              =    -922.12712545 Ry
     Harris-Foulkes estimate   =    -922.12712545 Ry
     estimated scf accuracy    <       0.00000002 Ry

     iteration # 21     ecut=    90.00 Ry     beta= 0.70
     Davidson diagonalization with overlap
     ethr =  1.88E-11,  avg # of iterations =  4.2

     total cpu time spent up to now is       16.0 secs

     total energy              =    -922.12712545 Ry
     Harris-Foulkes estimate   =    -922.12712545 Ry
     estimated scf accuracy    <       0.00000001 Ry

     iteration # 22     ecut=    90.00 Ry     beta= 0.70
     Davidson diagonalization with overlap
     ethr =  1.09E-11,  avg # of iterations =  3.5

     total cpu time spent up to now is       16.6 secs

     total energy              =    -922.12712545 Ry
     Harris-Foulkes estimate   =    -922.12712545 Ry
     estimated scf accuracy    <          3.0E-09 Ry

     iteration # 23     ecut=    90.00 Ry     beta= 0.70
     Davidson diagonalization with overlap
     ethr =  2.67E-12,  avg # of iterations =  4.5

     total cpu time spent up to now is       17.5 secs

     total energy              =    -922.12712545 Ry
     Harris-Foulkes estimate   =    -922.12712545 Ry
     estimated scf accuracy    <          5.8E-10 Ry

     iteration # 24     ecut=    90.00 Ry     beta= 0.70
     Davidson diagonalization with overlap
     ethr =  5.15E-13,  avg # of iterations =  1.8

     total cpu time spent up to now is       17.9 secs

     total energy              =    -922.12712545 Ry
     Harris-Foulkes estimate   =    -922.12712545 Ry
     estimated scf accuracy    <          3.5E-10 Ry

     iteration # 25     ecut=    90.00 Ry     beta= 0.70
     Davidson diagonalization with overlap
     ethr =  3.10E-13,  avg # of iterations =  4.2

     total cpu time spent up to now is       18.8 secs

     End of self-consistent calculation

          k = 0.0000 0.0000 0.0000 ( 17775 PWs)   bands (ev):

   -59.9655 -59.9636 -59.9547 -59.9527 -34.0020 -33.9996 -33.9928 -33.9873
   -33.9077 -33.8543 -33.8278 -33.7982 -33.7957 -33.7770 -33.7638 -33.7613
   -13.5388 -13.4153 -12.4491 -12.3223 -12.2371 -12.1952 -11.8134 -11.8090
   -11.6506 -11.6303  -0.4144  -0.4013  -0.3566  -0.2454  -0.0685   0.3669
     1.0617   1.1092   1.3411   1.3454   1.5786   1.6166   1.8693   1.8706
     1.9087   2.0056   2.0830   2.0926   2.1928   2.2823   2.3780   2.5119
     2.5198   2.9114   3.0333   3.0602   3.1098   3.3296   3.3606   3.4254

          k = 0.0000 0.2638 0.0000 ( 17760 PWs)   bands (ev):

   -59.9655 -59.9635 -59.9547 -59.9527 -34.0037 -34.0012 -33.9960 -33.9904
   -33.9073 -33.8539 -33.8277 -33.7980 -33.7955 -33.7770 -33.7638 -33.7613
   -13.4660 -13.3530 -12.3856 -12.2951 -12.2339 -12.1766 -11.8218 -11.7992
   -11.6218 -11.5969  -0.4603  -0.4469  -0.3936  -0.2894  -0.2365   0.0400
     0.2965   0.4762   0.5192   0.6668   1.1631   1.3052   1.3625   1.8082
     1.8627   2.0705   2.2210   2.3178   2.4818   2.5483   2.6889   2.7953
     3.0419   3.0492   3.0943   3.2112   3.2295   3.5094   3.5826   3.7240

          k = 0.3333 0.0000 0.0000 ( 17818 PWs)   bands (ev):

   -59.9610 -59.9591 -59.9556 -59.9537 -33.9961 -33.9937 -33.9904 -33.9862
   -33.9040 -33.8767 -33.8638 -33.8542 -33.8079 -33.8024 -33.7867 -33.7760
   -12.9608 -12.8194 -12.3460 -12.1812 -12.1711 -12.1457 -11.7521 -11.7418
   -11.7096 -11.6672  -0.9215  -0.8449  -0.0949  -0.0903   0.0336   0.3640
     0.4918   0.8759   0.8814   1.1805   1.2157   1.2527   1.6202   1.7572
     1.7673   1.9323   2.0104   2.0277   2.1117   2.1756   2.2688   2.3178
     2.3507   2.7521   3.0389   3.1221   3.2064   3.3952   3.5731   3.6405

          k = 0.3333 0.2638 0.0000 ( 17778 PWs)   bands (ev):

   -59.9610 -59.9590 -59.9556 -59.9536 -33.9981 -33.9956 -33.9932 -33.9888
   -33.9037 -33.8765 -33.8634 -33.8540 -33.8078 -33.8024 -33.7867 -33.7760
   -12.8975 -12.7722 -12.3048 -12.1780 -12.1548 -12.1298 -11.7388 -11.7194
   -11.6409 -11.6232  -0.9238  -0.8452  -0.1652  -0.1566  -0.0886   0.1627
     0.2649   0.4022   0.4499   0.6799   0.7368   0.9560   1.2987   1.3253
     1.4368   1.4759   1.6007   1.6961   1.8595   2.3017   2.5252   2.7186
     2.9910   2.9966   3.3806   3.5734   3.6009   3.7583   3.8030   3.8082

     highest occupied level (ev):     3.8082

!    total energy              =    -922.12712545 Ry
     Harris-Foulkes estimate   =    -922.12712545 Ry
     estimated scf accuracy    <          8.5E-11 Ry

     The total energy is the sum of the following terms:

     one-electron contribution =    -591.03406173 Ry
     hartree contribution      =     334.87834196 Ry
     xc contribution           =    -174.09976315 Ry
     ewald contribution        =    -491.74104654 Ry
     Dispersion Correction     =      -0.13059599 Ry

     convergence has been achieved in  25 iterations

     Forces acting on atoms (cartesian axes, Ry/au):

     atom    1 type  1   force =     0.00000000   -0.00001443    0.00001395
     atom    2 type  1   force =     0.00000000    0.00001443   -0.00001395
     atom    3 type  1   force =     0.00000000    0.00001443    0.00001395
     atom    4 type  1   force =    -0.00000000   -0.00001443   -0.00001395
     atom    5 type  2   force =     0.00000000   -0.00003360    0.00007631
     atom    6 type  2   force =     0.00000000    0.00003360   -0.00007631
     atom    7 type  2   force =     0.00000000    0.00003360    0.00007631
     atom    8 type  2   force =     0.00000000   -0.00003360   -0.00007631
     atom    9 type  2   force =     0.00000000    0.00003934    0.00008933
     atom   10 type  2   force =     0.00000000   -0.00003934   -0.00008933
     atom   11 type  2   force =     0.00000000   -0.00003934    0.00008933
     atom   12 type  2   force =     0.00000000    0.00001910   -0.00000000
     atom   13 type  2   force =     0.00000000   -0.00001910   -0.00000000
     atom   14 type  2   force =    -0.00000000    0.00003934   -0.00008933

     Total force =     0.000261     Total SCF correction =     0.000016


     Computing stress (Cartesian axis) and pressure

          total   stress  (Ry/bohr**3)                   (kbar)     P=    1.74
   0.00001157   0.00000000   0.00000000          1.70      0.00      0.00
   0.00000000   0.00001200   0.00000000          0.00      1.77      0.00
   0.00000000   0.00000000   0.00001200          0.00      0.00      1.77


     BFGS Geometry Optimization

     number of scf cycles    =   1
     number of bfgs steps    =   0

     enthalpy new            =    -922.1271254494 Ry

     new trust radius        =       0.0021081070 bohr
     new conv_thr            =            1.0E-10 Ry

     new unit-cell volume =   1234.67454 a.u.^3 (   182.95989 Ang^3 )
     density =      3.30148 g/cm^3

CELL_PARAMETERS (alat=  6.68268247)
   1.000289134   0.000000000   0.000000000
   0.000000000   1.264038726   0.000000000
   0.000000000   0.000000000   3.272005949

ATOMIC_POSITIONS (crystal)
V        0.000000000   0.382887818   0.648079017
V        0.500000002   0.617112186   0.851920988
V        0.500000002   0.617112186   0.148079016
V       -0.000000000   0.382887818   0.351920986
O        0.500000002   0.492370705   0.681294179
O        0.000000000   0.507629299   0.818705826
O        0.000000000   0.507629299   0.181294178
O        0.500000002   0.492370705   0.318705824
O        0.000000000   0.028868580   0.354172282
O        0.500000002   0.971131424   0.145827721
O        0.500000002   0.971131424   0.854172283
O        0.500000002   0.509145882  -0.000000000
O        0.000000000   0.490854122   0.500000002
O       -0.000000000   0.028868580   0.645827723



     Writing output data file v2o5.save/
     NEW-OLD atomic charge density approx. for the potential
     extrapolated charge  112.09953, renormalised to  112.00000

     total cpu time spent up to now is       20.6 secs

     Self-consistent Calculation

     iteration #  1     ecut=    90.00 Ry     beta= 0.70
     Davidson diagonalization with overlap
     ethr =  1.00E-06,  avg # of iterations =  5.0

     total cpu time spent up to now is       21.6 secs

     total energy              =    -922.12427382 Ry
     Harris-Foulkes estimate   =    -921.69598347 Ry
     estimated scf accuracy    <       0.00277642 Ry

     iteration #  2     ecut=    90.00 Ry     beta= 0.70
     Davidson diagonalization with overlap
     ethr =  2.48E-06,  avg # of iterations =  5.8

     total cpu time spent up to now is       22.8 secs

     total energy              =    -922.12135051 Ry
     Harris-Foulkes estimate   =    -922.13644689 Ry
     estimated scf accuracy    <       0.07923136 Ry

     iteration #  3     ecut=    90.00 Ry     beta= 0.70
     Davidson diagonalization with overlap
     ethr =  2.48E-06,  avg # of iterations =  5.0

     total cpu time spent up to now is       24.0 secs

     total energy              =    -922.12719434 Ry
     Harris-Foulkes estimate   =    -922.12740315 Ry
     estimated scf accuracy    <       0.00152750 Ry

     iteration #  4     ecut=    90.00 Ry     beta= 0.70
     Davidson diagonalization with overlap
     ethr =  1.36E-06,  avg # of iterations =  1.0

     total cpu time spent up to now is       24.4 secs

     total energy              =    -922.12708537 Ry
     Harris-Foulkes estimate   =    -922.12722220 Ry
     estimated scf accuracy    <       0.00107217 Ry

     iteration #  5     ecut=    90.00 Ry     beta= 0.70
     Davidson diagonalization with overlap
     ethr =  9.57E-07,  avg # of iterations =  2.0

     total cpu time spent up to now is       24.9 secs

     total energy              =    -922.12710865 Ry
     Harris-Foulkes estimate   =    -922.12711637 Ry
     estimated scf accuracy    <       0.00056575 Ry

     iteration #  6     ecut=    90.00 Ry     beta= 0.70
     Davidson diagonalization with overlap
     ethr =  5.05E-07,  avg # of iterations =  1.0

     total cpu time spent up to now is       25.3 secs

     total energy              =    -922.12712038 Ry
     Harris-Foulkes estimate   =    -922.12712146 Ry
     estimated scf accuracy    <       0.00050116 Ry

     iteration #  7     ecut=    90.00 Ry     beta= 0.70
     Davidson diagonalization with overlap
     ethr =  4.47E-07,  avg # of iterations =  1.0

     total cpu time spent up to now is       25.8 secs

     total energy              =    -922.12712545 Ry
     Harris-Foulkes estimate   =    -922.12712717 Ry
     estimated scf accuracy    <       0.00042123 Ry

     iteration #  8     ecut=    90.00 Ry     beta= 0.70
     Davidson diagonalization with overlap
     ethr =  3.76E-07,  avg # of iterations =  1.0

     total cpu time spent up to now is       26.2 secs

     total energy              =    -922.12712806 Ry
     Harris-Foulkes estimate   =    -922.12713112 Ry
     estimated scf accuracy    <       0.00036276 Ry

     iteration #  9     ecut=    90.00 Ry     beta= 0.70
     Davidson diagonalization with overlap
     ethr =  3.24E-07,  avg # of iterations =  1.0

     total cpu time spent up to now is       26.7 secs

     total energy              =    -922.12712918 Ry
     Harris-Foulkes estimate   =    -922.12713230 Ry
     estimated scf accuracy    <       0.00031603 Ry

     iteration # 10     ecut=    90.00 Ry     beta= 0.70
     Davidson diagonalization with overlap
     ethr =  2.82E-07,  avg # of iterations =  1.0

     total cpu time spent up to now is       27.1 secs

     total energy              =    -922.12708752 Ry
     Harris-Foulkes estimate   =    -922.12713259 Ry
     estimated scf accuracy    <       0.00027413 Ry

     iteration # 11     ecut=    90.00 Ry     beta= 0.70
     Davidson diagonalization with overlap
     ethr =  2.45E-07,  avg # of iterations =  4.0

     total cpu time spent up to now is       27.8 secs

     total energy              =    -922.12713231 Ry
     Harris-Foulkes estimate   =    -922.12713378 Ry
     estimated scf accuracy    <       0.00003631 Ry

     iteration # 12     ecut=    90.00 Ry     beta= 0.70
     Davidson diagonalization with overlap
     ethr =  3.24E-08,  avg # of iterations =  4.5

     total cpu time spent up to now is       28.5 secs

     total energy              =    -922.12714475 Ry
     Harris-Foulkes estimate   =    -922.12714062 Ry
     estimated scf accuracy    <       0.00004620 Ry

     iteration # 13     ecut=    90.00 Ry     beta= 0.70
     Davidson diagonalization with overlap
     ethr =  3.24E-08,  avg # of iterations =  2.2

     total cpu time spent up to now is       29.0 secs

     total energy              =    -922.12712529 Ry
     Harris-Foulkes estimate   =    -922.12714555 Ry
     estimated scf accuracy    <       0.00006466 Ry

     iteration # 14     ecut=    90.00 Ry     beta= 0.70
     Davidson diagonalization with overlap
     ethr =  3.24E-08,  avg # of iterations =  5.0

     total cpu time spent up to now is       29.9 secs

     total energy              =    -922.12713681 Ry
     Harris-Foulkes estimate   =    -922.12713671 Ry
     estimated scf accuracy    <       0.00002594 Ry

     iteration # 15     ecut=    90.00 Ry     beta= 0.70
     Davidson diagonalization with overlap
     ethr =  2.32E-08,  avg # of iterations =  1.0

     total cpu time spent up to now is       30.4 secs

     total energy              =    -922.12713133 Ry
     Harris-Foulkes estimate   =    -922.12713742 Ry
     estimated scf accuracy    <       0.00002758 Ry

     iteration # 16     ecut=    90.00 Ry     beta= 0.70
     Davidson diagonalization with overlap
     ethr =  2.32E-08,  avg # of iterations =  4.0

     total cpu time spent up to now is       31.0 secs

     total energy              =    -922.12713149 Ry
     Harris-Foulkes estimate   =    -922.12713401 Ry
     estimated scf accuracy    <       0.00000946 Ry

     iteration # 17     ecut=    90.00 Ry     beta= 0.70
     Davidson diagonalization with overlap
     ethr =  8.44E-09,  avg # of iterations =  4.2

     total cpu time spent up to now is       31.7 secs

     total energy              =    -922.12713272 Ry
     Harris-Foulkes estimate   =    -922.12713298 Ry
     estimated scf accuracy    <       0.00000071 Ry

     iteration # 18     ecut=    90.00 Ry     beta= 0.70
     Davidson diagonalization with overlap
     ethr =  6.32E-10,  avg # of iterations =  4.8

     total cpu time spent up to now is       32.5 secs

     total energy              =    -922.12713287 Ry
     Harris-Foulkes estimate   =    -922.12713288 Ry
     estimated scf accuracy    <       0.00000004 Ry

     iteration # 19     ecut=    90.00 Ry     beta= 0.70
     Davidson diagonalization with overlap
     ethr =  3.76E-11,  avg # of iterations =  5.0

     total cpu time spent up to now is       34.2 secs

     total energy              =    -922.12713289 Ry
     Harris-Foulkes estimate   =    -922.12713292 Ry
     estimated scf accuracy    <       0.00000020 Ry

     iteration # 20     ecut=    90.00 Ry     beta= 0.70
     Davidson diagonalization with overlap
     ethr =  3.76E-11,  avg # of iterations =  4.0

     total cpu time spent up to now is       35.3 secs

     total energy              =    -922.12713288 Ry
     Harris-Foulkes estimate   =    -922.12713290 Ry
     estimated scf accuracy    <       0.00000008 Ry

     iteration # 21     ecut=    90.00 Ry     beta= 0.70
     Davidson diagonalization with overlap
     ethr =  3.76E-11,  avg # of iterations =  4.0

     total cpu time spent up to now is       36.6 secs

     total energy              =    -922.12713289 Ry
     Harris-Foulkes estimate   =    -922.12713289 Ry
     estimated scf accuracy    <          3.3E-09 Ry

     iteration # 22     ecut=    90.00 Ry     beta= 0.70
     Davidson diagonalization with overlap
     ethr =  2.98E-12,  avg # of iterations =  4.5

     total cpu time spent up to now is       37.7 secs

     total energy              =    -922.12713289 Ry
     Harris-Foulkes estimate   =    -922.12713289 Ry
     estimated scf accuracy    <          2.4E-10 Ry

     iteration # 23     ecut=    90.00 Ry     beta= 0.70
     Davidson diagonalization with overlap
     ethr =  2.16E-13,  avg # of iterations =  5.0

     total cpu time spent up to now is       39.3 secs

     total energy              =    -922.12713289 Ry
     Harris-Foulkes estimate   =    -922.12713289 Ry
     estimated scf accuracy    <          1.8E-10 Ry

     iteration # 24     ecut=    90.00 Ry     beta= 0.70
     Davidson diagonalization with overlap
     ethr =  1.56E-13,  avg # of iterations =  1.0

     total cpu time spent up to now is       40.0 secs

     total energy              =    -922.12713289 Ry
     Harris-Foulkes estimate   =    -922.12713289 Ry
     estimated scf accuracy    <          1.0E-10 Ry

     iteration # 25     ecut=    90.00 Ry     beta= 0.70
     Davidson diagonalization with overlap
     ethr =  1.00E-13,  avg # of iterations =  4.0

     total cpu time spent up to now is       41.2 secs

     End of self-consistent calculation

          k = 0.0000 0.0000 0.0000 ( 17775 PWs)   bands (ev):

   -59.9777 -59.9758 -59.9669 -59.9650 -34.0128 -34.0105 -34.0037 -33.9981
   -33.9192 -33.8660 -33.8396 -33.8101 -33.8076 -33.7890 -33.7759 -33.7734
   -13.5453 -13.4221 -12.4573 -12.3300 -12.2449 -12.2038 -11.8229 -11.8185
   -11.6605 -11.6402  -0.4212  -0.4082  -0.3629  -0.2514  -0.0760   0.3593
     1.0548   1.1022   1.3337   1.3381   1.5705   1.6084   1.8597   1.8614
     1.8990   1.9963   2.0754   2.0837   2.1851   2.2739   2.3696   2.5024
     2.5118   2.9022   3.0234   3.0503   3.1010   3.3206   3.3517   3.4157

          k = 0.0000 0.2637 0.0000 ( 17760 PWs)   bands (ev):

   -59.9777 -59.9757 -59.9669 -59.9650 -34.0145 -34.0121 -34.0069 -34.0013
   -33.9188 -33.8656 -33.8396 -33.8099 -33.8075 -33.7890 -33.7759 -33.7734
   -13.4726 -13.3598 -12.3938 -12.3028 -12.2418 -12.1853 -11.8314 -11.8089
   -11.6319 -11.6071  -0.4671  -0.4537  -0.3998  -0.2953  -0.2429   0.0341
     0.2890   0.4687   0.5125   0.6605   1.1547   1.2977   1.3549   1.7994
     1.8543   2.0629   2.2133   2.3081   2.4721   2.5394   2.6797   2.7857
     3.0319   3.0392   3.0850   3.2021   3.2205   3.5002   3.5728   3.7143

          k = 0.3332 0.0000 0.0000 ( 17818 PWs)   bands (ev):

   -59.9733 -59.9713 -59.9679 -59.9659 -34.0069 -34.0046 -34.0013 -33.9970
   -33.9155 -33.8883 -33.8754 -33.8659 -33.8198 -33.8143 -33.7987 -33.7880
   -12.9683 -12.8272 -12.3543 -12.1896 -12.1797 -12.1545 -11.7618 -11.7515
   -11.7195 -11.6771  -0.9277  -0.8514  -0.1020  -0.0964   0.0261   0.3566
     0.4848   0.8686   0.8750   1.1736   1.2085   1.2457   1.6126   1.7492
     1.7592   1.9234   2.0010   2.0196   2.1017   2.1673   2.2583   2.3085
     2.3419   2.7433   3.0303   3.1125   3.1977   3.3862   3.5640   3.6308

          k = 0.3332 0.2637 0.0000 ( 17778 PWs)   bands (ev):

   -59.9732 -59.9713 -59.9678 -59.9659 -34.0089 -34.0065 -34.0041 -33.9997
   -33.9152 -33.8881 -33.8750 -33.8657 -33.8197 -33.8143 -33.7987 -33.7881
   -12.9051 -12.7800 -12.3130 -12.1864 -12.1635 -12.1387 -11.7486 -11.7293
   -11.6510 -11.6333  -0.9299  -0.8517  -0.1711  -0.1633  -0.0953   0.1569
     0.2577   0.3957   0.4431   0.6733   0.7298   0.9484   1.2900   1.3182
     1.4286   1.4679   1.5922   1.6880   1.8508   2.2931   2.5166   2.7093
     2.9814   2.9869   3.3711   3.5640   3.5915   3.7488   3.7931   3.7988

     highest occupied level (ev):     3.7988

!    total energy              =    -922.12713289 Ry
     Harris-Foulkes estimate   =    -922.12713289 Ry
     estimated scf accuracy    <          1.7E-11 Ry

     The total energy is the sum of the following terms:

     one-electron contribution =    -591.26352444 Ry
     hartree contribution      =     334.94970097 Ry
     xc contribution           =    -174.09169382 Ry
     ewald contribution        =    -491.59114361 Ry
     Dispersion Correction     =      -0.13047199 Ry

     convergence has been achieved in  25 iterations

     Forces acting on atoms (cartesian axes, Ry/au):

     atom    1 type  1   force =     0.00000000   -0.00054138   -0.00015928
     atom    2 type  1   force =     0.00000000    0.00054138    0.00015928
     atom    3 type  1   force =     0.00000000    0.00054138   -0.00015928
     atom    4 type  1   force =    -0.00000000   -0.00054138    0.00015928
     atom    5 type  2   force =    -0.00000000   -0.00016245    0.00015058
     atom    6 type  2   force =     0.00000000    0.00016245   -0.00015058
     atom    7 type  2   force =     0.00000000    0.00016245    0.00015058
     atom    8 type  2   force =     0.00000000   -0.00016245   -0.00015058
     atom    9 type  2   force =     0.00000000    0.00097765    0.00005502
     atom   10 type  2   force =     0.00000000   -0.00097765   -0.00005502
     atom   11 type  2   force =    -0.00000000   -0.00097765    0.00005502
     atom   12 type  2   force =    -0.00000000    0.00029700    0.00000000
     atom   13 type  2   force =     0.00000000   -0.00029700   -0.00000000
     atom   14 type  2   force =     0.00000000    0.00097765   -0.00005502

     Total force =     0.002341     Total SCF correction =     0.000008


     Computing stress (Cartesian axis) and pressure

          total   stress  (Ry/bohr**3)                   (kbar)     P=    0.20
   0.00000198   0.00000000   0.00000000          0.29      0.00      0.00
   0.00000000   0.00000058   0.00000000          0.00      0.08      0.00
   0.00000000   0.00000000   0.00000162          0.00      0.00      0.24


     number of scf cycles    =   2
     number of bfgs steps    =   1

     enthalpy old            =    -922.1271254494 Ry
     enthalpy new            =    -922.1271328911 Ry

     CASE: enthalpy_new < enthalpy_old

     new trust radius        =       0.0015404401 bohr
     new conv_thr            =            1.0E-12 Ry

     new unit-cell volume =   1235.43888 a.u.^3 (   183.07315 Ang^3 )
     density =      3.29943 g/cm^3

CELL_PARAMETERS (alat=  6.68268247)
   1.000508396   0.000000000   0.000000000
   0.000000000   1.264272280   0.000000000
   0.000000000   0.000000000   3.272709316

ATOMIC_POSITIONS (crystal)
V        0.000000000   0.382812527   0.648070926
V        0.500000002   0.617187477   0.851929079
V        0.500000002   0.617187477   0.148070925
V       -0.000000000   0.382812527   0.351929077
O        0.500000002   0.492346172   0.681304121
O        0.000000000   0.507653832   0.818695884
O        0.000000000   0.507653832   0.181304120
O        0.500000002   0.492346172   0.318695882
O        0.000000000   0.029005425   0.354177489
O        0.500000002   0.970994579   0.145822514
O        0.500000002   0.970994579   0.854177490
O        0.500000002   0.509187928  -0.000000000
O        0.000000000   0.490812076   0.500000002
O       -0.000000000   0.029005425   0.645822516



     Writing output data file v2o5.save/
     NEW-OLD atomic charge density approx. for the potential
     extrapolated charge  112.06929, renormalised to  112.00000

     total cpu time spent up to now is       43.9 secs

     Self-consistent Calculation

     iteration #  1     ecut=    90.00 Ry     beta= 0.70
     Davidson diagonalization with overlap
     ethr =  1.00E-06,  avg # of iterations =  4.0

     total cpu time spent up to now is       45.4 secs

     total energy              =    -922.12605718 Ry
     Harris-Foulkes estimate   =    -921.82674200 Ry
     estimated scf accuracy    <       0.00100262 Ry

     iteration #  2     ecut=    90.00 Ry     beta= 0.70
     Davidson diagonalization with overlap
     ethr =  8.95E-07,  avg # of iterations =  5.8

     total cpu time spent up to now is       47.2 secs

     total energy              =    -922.12514075 Ry
     Harris-Foulkes estimate   =    -922.13048501 Ry
     estimated scf accuracy    <       0.02774768 Ry

     iteration #  3     ecut=    90.00 Ry     beta= 0.70
     Davidson diagonalization with overlap
     ethr =  8.95E-07,  avg # of iterations =  5.0

     total cpu time spent up to now is       49.1 secs

     total energy              =    -922.12716506 Ry
     Harris-Foulkes estimate   =    -922.12724743 Ry
     estimated scf accuracy    <       0.00060387 Ry

     iteration #  4     ecut=    90.00 Ry     beta= 0.70
     Davidson diagonalization with overlap
     ethr =  5.39E-07,  avg # of iterations =  1.0

     total cpu time spent up to now is       49.9 secs

     total energy              =    -922.12711063 Ry
     Harris-Foulkes estimate   =    -922.12717499 Ry
     estimated scf accuracy    <       0.00043136 Ry

     iteration #  5     ecut=    90.00 Ry     beta= 0.70
     Davidson diagonalization with overlap
     ethr =  3.85E-07,  avg # of iterations =  2.2

     total cpu time spent up to now is       50.6 secs

     total energy              =    -922.12712889 Ry
     Harris-Foulkes estimate   =    -922.12712518 Ry
     estimated scf accuracy    <       0.00019781 Ry

     iteration #  6     ecut=    90.00 Ry     beta= 0.70
     Davidson diagonalization with overlap
     ethr =  1.77E-07,  avg # of iterations =  1.5

     total cpu time spent up to now is       51.4 secs

     total energy              =    -922.12713380 Ry
     Harris-Foulkes estimate   =    -922.12713444 Ry
     estimated scf accuracy    <       0.00019064 Ry

     iteration #  7     ecut=    90.00 Ry     beta= 0.70
     Davidson diagonalization with overlap
     ethr =  1.70E-07,  avg # of iterations =  1.0

     total cpu time spent up to now is       52.1 secs

     total energy              =    -922.12713294 Ry
     Harris-Foulkes estimate   =    -922.12713623 Ry
     estimated scf accuracy    <       0.00015998 Ry

     iteration #  8     ecut=    90.00 Ry     beta= 0.70
     Davidson diagonalization with overlap
     ethr =  1.43E-07,  avg # of iterations =  1.0

     total cpu time spent up to now is       52.8 secs

     total energy              =    -922.12713452 Ry
     Harris-Foulkes estimate   =    -922.12713505 Ry
     estimated scf accuracy    <       0.00013787 Ry

     iteration #  9     ecut=    90.00 Ry     beta= 0.70
     Davidson diagonalization with overlap
     ethr =  1.23E-07,  avg # of iterations =  1.0

     total cpu time spent up to now is       53.5 secs

     total energy              =    -922.12713174 Ry
     Harris-Foulkes estimate   =    -922.12713612 Ry
     estimated scf accuracy    <       0.00012002 Ry

     iteration # 10     ecut=    90.00 Ry     beta= 0.70
     Davidson diagonalization with overlap
     ethr =  1.07E-07,  avg # of iterations =  1.0

     total cpu time spent up to now is       54.3 secs

     total energy              =    -922.12710569 Ry
     Harris-Foulkes estimate   =    -922.12713335 Ry
     estimated scf accuracy    <       0.00009801 Ry

     iteration # 11     ecut=    90.00 Ry     beta= 0.70
     Davidson diagonalization with overlap
     ethr =  8.75E-08,  avg # of iterations =  5.0

     total cpu time spent up to now is       55.7 secs

     total energy              =    -922.12713847 Ry
     Harris-Foulkes estimate   =    -922.12714286 Ry
     estimated scf accuracy    <       0.00004995 Ry

     iteration # 12     ecut=    90.00 Ry     beta= 0.70
     Davidson diagonalization with overlap
     ethr =  4.46E-08,  avg # of iterations =  1.0

     total cpu time spent up to now is       56.4 secs

     total energy              =    -922.12713681 Ry
     Harris-Foulkes estimate   =    -922.12713889 Ry
     estimated scf accuracy    <       0.00003866 Ry

     iteration # 13     ecut=    90.00 Ry     beta= 0.70
     Davidson diagonalization with overlap
     ethr =  3.45E-08,  avg # of iterations =  1.0

     total cpu time spent up to now is       57.1 secs

     total energy              =    -922.12713605 Ry
     Harris-Foulkes estimate   =    -922.12713728 Ry
     estimated scf accuracy    <       0.00003121 Ry

     iteration # 14     ecut=    90.00 Ry     beta= 0.70
     Davidson diagonalization with overlap
     ethr =  2.79E-08,  avg # of iterations =  1.0

     total cpu time spent up to now is       57.9 secs

     total energy              =    -922.12713356 Ry
     Harris-Foulkes estimate   =    -922.12713647 Ry
     estimated scf accuracy    <       0.00002623 Ry

     iteration # 15     ecut=    90.00 Ry     beta= 0.70
     Davidson diagonalization with overlap
     ethr =  2.34E-08,  avg # of iterations =  2.5

     total cpu time spent up to now is       58.7 secs

     total energy              =    -922.12713305 Ry
     Harris-Foulkes estimate   =    -922.12713431 Ry
     estimated scf accuracy    <       0.00001710 Ry

     iteration # 16     ecut=    90.00 Ry     beta= 0.70
     Davidson diagonalization with overlap
     ethr =  1.53E-08,  avg # of iterations =  3.8

     total cpu time spent up to now is       59.6 secs

     total energy              =    -922.12713365 Ry
     Harris-Foulkes estimate   =    -922.12713422 Ry
     estimated scf accuracy    <       0.00000518 Ry

     iteration # 17     ecut=    90.00 Ry     beta= 0.70
     Davidson diagonalization with overlap
     ethr =  4.63E-09,  avg # of iterations =  4.0

     total cpu time spent up to now is       60.8 secs

     total energy              =    -922.12713513 Ry
     Harris-Foulkes estimate   =    -922.12713522 Ry
     estimated scf accuracy    <       0.00000024 Ry

     iteration # 18     ecut=    90.00 Ry     beta= 0.70
     Davidson diagonalization with overlap
     ethr =  2.14E-10,  avg # of iterations =  5.0

     total cpu time spent up to now is       62.4 secs

     total energy              =    -922.12713517 Ry
     Harris-Foulkes estimate   =    -922.12713524 Ry
     estimated scf accuracy    <       0.00000019 Ry

     iteration # 19     ecut=    90.00 Ry     beta= 0.70
     Davidson diagonalization with overlap
     ethr =  1.74E-10,  avg # of iterations =  5.0

     total cpu time spent up to now is       64.0 secs

     total energy              =    -922.12713521 Ry
     Harris-Foulkes estimate   =    -922.12713530 Ry
     estimated scf accuracy    <       0.00000058 Ry

     iteration # 20     ecut=    90.00 Ry     beta= 0.70
     Davidson diagonalization with overlap
     ethr =  1.74E-10,  avg # of iterations =  4.0

     total cpu time spent up to now is       65.0 secs

     total energy              =    -922.12713519 Ry
     Harris-Foulkes estimate   =    -922.12713523 Ry
     estimated scf accuracy    <       0.00000020 Ry

     iteration # 21     ecut=    90.00 Ry     beta= 0.70
     Davidson diagonalization with overlap
     ethr =  1.74E-10,  avg # of iterations =  3.8

     total cpu time spent up to now is       66.0 secs

     total energy              =    -922.12713521 Ry
     Harris-Foulkes estimate   =    -922.12713521 Ry
     estimated scf accuracy    <       0.00000002 Ry

     iteration # 22     ecut=    90.00 Ry     beta= 0.70
     Davidson diagonalization with overlap
     ethr =  1.97E-11,  avg # of iterations =  4.0

     total cpu time spent up to now is       67.3 secs

     total energy              =    -922.12713521 Ry
     Harris-Foulkes estimate   =    -922.12713522 Ry
     estimated scf accuracy    <          7.0E-09 Ry

     iteration # 23     ecut=    90.00 Ry     beta= 0.70
     Davidson diagonalization with overlap
     ethr =  6.29E-12,  avg # of iterations =  4.0

     total cpu time spent up to now is       68.2 secs

     total energy              =    -922.12713522 Ry
     Harris-Foulkes estimate   =    -922.12713522 Ry
     estimated scf accuracy    <          1.2E-09 Ry

     iteration # 24     ecut=    90.00 Ry     beta= 0.70
     Davidson diagonalization with overlap
     ethr =  1.10E-12,  avg # of iterations =  4.8

     total cpu time spent up to now is       69.7 secs

     total energy              =    -922.12713522 Ry
     Harris-Foulkes estimate   =    -922.12713522 Ry
     estimated scf accuracy    <          1.0E-09 Ry

     iteration # 25     ecut=    90.00 Ry     beta= 0.70
     Davidson diagonalization with overlap
     ethr =  8.97E-13,  avg # of iterations =  4.0

     total cpu time spent up to now is       70.6 secs

     total energy              =    -922.12713522 Ry
     Harris-Foulkes estimate   =    -922.12713522 Ry
     estimated scf accuracy    <          1.8E-10 Ry

     iteration # 26     ecut=    90.00 Ry     beta= 0.70
     Davidson diagonalization with overlap
     ethr =  1.61E-13,  avg # of iterations =  4.2

     total cpu time spent up to now is       72.0 secs

     total energy              =    -922.12713522 Ry
     Harris-Foulkes estimate   =    -922.12713522 Ry
     estimated scf accuracy    <          1.5E-10 Ry

     iteration # 27     ecut=    90.00 Ry     beta= 0.70
     Davidson diagonalization with overlap
     ethr =  1.36E-13,  avg # of iterations =  1.0

     total cpu time spent up to now is       72.7 secs

     total energy              =    -922.12713522 Ry
     Harris-Foulkes estimate   =    -922.12713522 Ry
     estimated scf accuracy    <          1.1E-10 Ry

     iteration # 28     ecut=    90.00 Ry     beta= 0.70
     Davidson diagonalization with overlap
     ethr =  1.00E-13,  avg # of iterations =  2.0

     total cpu time spent up to now is       73.4 secs

     total energy              =    -922.12713522 Ry
     Harris-Foulkes estimate   =    -922.12713522 Ry
     estimated scf accuracy    <          4.8E-11 Ry

     iteration # 29     ecut=    90.00 Ry     beta= 0.70
     Davidson diagonalization with overlap
     ethr =  1.00E-13,  avg # of iterations =  1.5

     total cpu time spent up to now is       74.1 secs

     total energy              =    -922.12713522 Ry
     Harris-Foulkes estimate   =    -922.12713522 Ry
     estimated scf accuracy    <          2.7E-11 Ry

     iteration # 30     ecut=    90.00 Ry     beta= 0.70
     Davidson diagonalization with overlap
     ethr =  1.00E-13,  avg # of iterations =  1.5

     total cpu time spent up to now is       74.9 secs

     total energy              =    -922.12713522 Ry
     Harris-Foulkes estimate   =    -922.12713522 Ry
     estimated scf accuracy    <          1.2E-11 Ry

     iteration # 31     ecut=    90.00 Ry     beta= 0.70
     Davidson diagonalization with overlap
     ethr =  1.00E-13,  avg # of iterations =  4.0

     total cpu time spent up to now is       75.9 secs

     total energy              =    -922.12713522 Ry
     Harris-Foulkes estimate   =    -922.12713522 Ry
     estimated scf accuracy    <          1.8E-11 Ry

     iteration # 32     ecut=    90.00 Ry     beta= 0.70
     Davidson diagonalization with overlap
     ethr =  1.00E-13,  avg # of iterations =  1.0

     total cpu time spent up to now is       76.6 secs

     total energy              =    -922.12713522 Ry
     Harris-Foulkes estimate   =    -922.12713522 Ry
     estimated scf accuracy    <          1.8E-11 Ry

     iteration # 33     ecut=    90.00 Ry     beta= 0.70
     Davidson diagonalization with overlap
     ethr =  1.00E-13,  avg # of iterations =  1.0

     total cpu time spent up to now is       77.3 secs

     total energy              =    -922.12713522 Ry
     Harris-Foulkes estimate   =    -922.12713522 Ry
     estimated scf accuracy    <          2.2E-11 Ry

     iteration # 34     ecut=    90.00 Ry     beta= 0.70
     Davidson diagonalization with overlap
     ethr =  1.00E-13,  avg # of iterations =  1.0

     total cpu time spent up to now is       78.0 secs

     total energy              =    -922.12713522 Ry
     Harris-Foulkes estimate   =    -922.12713522 Ry
     estimated scf accuracy    <          2.7E-11 Ry

     iteration # 35     ecut=    90.00 Ry     beta= 0.70
     Davidson diagonalization with overlap
     ethr =  1.00E-13,  avg # of iterations =  1.0

     total cpu time spent up to now is       78.7 secs

     total energy              =    -922.12713522 Ry
     Harris-Foulkes estimate   =    -922.12713522 Ry
     estimated scf accuracy    <          2.9E-11 Ry

     iteration # 36     ecut=    90.00 Ry     beta= 0.70
     Davidson diagonalization with overlap
     ethr =  1.00E-13,  avg # of iterations =  1.0

     total cpu time spent up to now is       79.4 secs

     total energy              =    -922.12713522 Ry
     Harris-Foulkes estimate   =    -922.12713522 Ry
     estimated scf accuracy    <          3.2E-11 Ry

     iteration # 37     ecut=    90.00 Ry     beta= 0.70
     Davidson diagonalization with overlap
     ethr =  1.00E-13,  avg # of iterations =  1.0

     total cpu time spent up to now is       80.2 secs

     total energy              =    -922.12713522 Ry
     Harris-Foulkes estimate   =    -922.12713522 Ry
     estimated scf accuracy    <          2.8E-11 Ry

     iteration # 38     ecut=    90.00 Ry     beta= 0.70
     Davidson diagonalization with overlap
     ethr =  1.00E-13,  avg # of iterations =  1.0

     total cpu time spent up to now is       80.9 secs

     total energy              =    -922.12713522 Ry
     Harris-Foulkes estimate   =    -922.12713522 Ry
     estimated scf accuracy    <          2.3E-11 Ry

     iteration # 39     ecut=    90.00 Ry     beta= 0.70
     Davidson diagonalization with overlap
     ethr =  1.00E-13,  avg # of iterations =  1.0

     total cpu time spent up to now is       81.6 secs

     total energy              =    -922.12713522 Ry
     Harris-Foulkes estimate   =    -922.12713522 Ry
     estimated scf accuracy    <          1.3E-11 Ry

     iteration # 40     ecut=    90.00 Ry     beta= 0.70
     Davidson diagonalization with overlap
     ethr =  1.00E-13,  avg # of iterations =  1.0

     total cpu time spent up to now is       82.3 secs

     total energy              =    -922.12713522 Ry
     Harris-Foulkes estimate   =    -922.12713522 Ry
     estimated scf accuracy    <          2.5E-12 Ry

     iteration # 41     ecut=    90.00 Ry     beta= 0.70
     Davidson diagonalization with overlap
     ethr =  1.00E-13,  avg # of iterations =  1.0

     total cpu time spent up to now is       83.1 secs

     End of self-consistent calculation

          k = 0.0000 0.0000 0.0000 ( 17775 PWs)   bands (ev):

   -59.9843 -59.9823 -59.9735 -59.9716 -34.0213 -34.0190 -34.0122 -34.0067
   -33.9249 -33.8718 -33.8456 -33.8158 -33.8133 -33.7950 -33.7817 -33.7793
   -13.5475 -13.4243 -12.4616 -12.3324 -12.2477 -12.2086 -11.8318 -11.8271
   -11.6698 -11.6493  -0.4239  -0.4109  -0.3649  -0.2532  -0.0801   0.3542
     1.0514   1.0932   1.3297   1.3311   1.5633   1.6012   1.8506   1.8509
     1.8876   1.9858   2.0678   2.0722   2.1808   2.2616   2.3608   2.4923
     2.5070   2.8968   3.0138   3.0406   3.0979   3.3136   3.3474   3.4086

          k = 0.0000 0.2637 0.0000 ( 17760 PWs)   bands (ev):

   -59.9842 -59.9823 -59.9735 -59.9716 -34.0230 -34.0206 -34.0154 -34.0098
   -33.9245 -33.8714 -33.8456 -33.8156 -33.8132 -33.7950 -33.7817 -33.7793
   -13.4746 -13.3619 -12.3978 -12.3050 -12.2447 -12.1900 -11.8403 -11.8180
   -11.6415 -11.6168  -0.4699  -0.4566  -0.4024  -0.2973  -0.2471   0.0284
     0.2838   0.4637   0.5055   0.6525   1.1465   1.2901   1.3472   1.7901
     1.8445   2.0570   2.2090   2.3028   2.4659   2.5273   2.6693   2.7744
     3.0231   3.0303   3.0798   3.1975   3.2161   3.4932   3.5665   3.7058

          k = 0.3332 0.0000 0.0000 ( 17818 PWs)   bands (ev):

   -59.9798 -59.9779 -59.9744 -59.9725 -34.0154 -34.0131 -34.0099 -34.0056
   -33.9212 -33.8940 -33.8811 -33.8715 -33.8256 -33.8201 -33.8046 -33.7940
   -12.9714 -12.8303 -12.3589 -12.1926 -12.1831 -12.1593 -11.7709 -11.7603
   -11.7292 -11.6861  -0.9292  -0.8531  -0.1053  -0.0984   0.0219   0.3534
     0.4818   0.8638   0.8714   1.1672   1.2011   1.2366   1.6047   1.7405
     1.7502   1.9145   1.9908   2.0101   2.0919   2.1603   2.2481   2.3016
     2.3314   2.7369   3.0236   3.1038   3.1916   3.3786   3.5592   3.6261

          k = 0.3332 0.2637 0.0000 ( 17778 PWs)   bands (ev):

   -59.9798 -59.9778 -59.9744 -59.9725 -34.0174 -34.0150 -34.0126 -34.0083
   -33.9208 -33.8937 -33.8807 -33.8712 -33.8256 -33.8201 -33.8046 -33.7941
   -12.9080 -12.7829 -12.3172 -12.1894 -12.1672 -12.1434 -11.7579 -11.7388
   -11.6606 -11.6432  -0.9314  -0.8533  -0.1737  -0.1671  -0.0997   0.1513
     0.2542   0.3924   0.4379   0.6662   0.7226   0.9438   1.2813   1.3133
     1.4217   1.4605   1.5839   1.6804   1.8413   2.2827   2.5093   2.6989
     2.9739   2.9804   3.3629   3.5569   3.5845   3.7409   3.7872   3.7926

     highest occupied level (ev):     3.7926

!    total energy              =    -922.12713522 Ry
     Harris-Foulkes estimate   =    -922.12713522 Ry
     estimated scf accuracy    <          8.0E-13 Ry

     The total energy is the sum of the following terms:

     one-electron contribution =    -591.55454062 Ry
     hartree contribution      =     335.06807546 Ry
     xc contribution           =    -174.09053715 Ry
     ewald contribution        =    -491.41973920 Ry
     Dispersion Correction     =      -0.13039371 Ry

     convergence has been achieved in  41 iterations

     Forces acting on atoms (cartesian axes, Ry/au):

     atom    1 type  1   force =    -0.00000000    0.00092637   -0.00002694
     atom    2 type  1   force =     0.00000000   -0.00092637    0.00002694
     atom    3 type  1   force =     0.00000000   -0.00092637   -0.00002694
     atom    4 type  1   force =    -0.00000000    0.00092637    0.00002694
     atom    5 type  2   force =    -0.00000000   -0.00026829    0.00014867
     atom    6 type  2   force =     0.00000000    0.00026829   -0.00014867
     atom    7 type  2   force =     0.00000000    0.00026829    0.00014867
     atom    8 type  2   force =    -0.00000000   -0.00026829   -0.00014867
     atom    9 type  2   force =    -0.00000000   -0.00017013    0.00005877
     atom   10 type  2   force =    -0.00000000    0.00017013   -0.00005877
     atom   11 type  2   force =     0.00000000    0.00017013    0.00005877
     atom   12 type  2   force =     0.00000000    0.00041841    0.00000000
     atom   13 type  2   force =     0.00000000   -0.00041841   -0.00000000
     atom   14 type  2   force =     0.00000000   -0.00017013   -0.00005877

     Total force =     0.002072     Total SCF correction =     0.000004


     Computing stress (Cartesian axis) and pressure

          total   stress  (Ry/bohr**3)                   (kbar)     P=   -0.02
  -0.00000563   0.00000000   0.00000000         -0.83      0.00      0.00
   0.00000000   0.00001031   0.00000000          0.00      1.52      0.00
   0.00000000   0.00000000  -0.00000503          0.00      0.00     -0.74


     number of scf cycles    =   3
     number of bfgs steps    =   2

     enthalpy old            =    -922.1271328911 Ry
     enthalpy new            =    -922.1271352155 Ry

     CASE: enthalpy_new < enthalpy_old

     new trust radius        =       0.0016894199 bohr
     new conv_thr            =            1.0E-12 Ry

     new unit-cell volume =   1235.68007 a.u.^3 (   183.10889 Ang^3 )
     density =      3.29879 g/cm^3

CELL_PARAMETERS (alat=  6.68268247)
   1.000482516   0.000000000   0.000000000
   0.000000000   1.264576115   0.000000000
   0.000000000   0.000000000   3.272646426

ATOMIC_POSITIONS (crystal)
V        0.000000000   0.382849815   0.648065415
V        0.500000002   0.617150189   0.851934590
V        0.500000002   0.617150189   0.148065414
V       -0.000000000   0.382849815   0.351934588
O        0.500000002   0.492310219   0.681314009
O        0.000000000   0.507689785   0.818685996
O        0.000000000   0.507689785   0.181314008
O        0.500000002   0.492310219   0.318685994
O        0.000000000   0.029066574   0.354181672
O        0.500000002   0.970933430   0.145818331
O        0.500000002   0.970933430   0.854181673
O        0.500000002   0.509246751  -0.000000000
O        0.000000000   0.490753253   0.500000002
O       -0.000000000   0.029066574   0.645818333



     Writing output data file v2o5.save/
     NEW-OLD atomic charge density approx. for the potential
     extrapolated charge  112.02186, renormalised to  112.00000

     total cpu time spent up to now is       85.8 secs

     Self-consistent Calculation

     iteration #  1     ecut=    90.00 Ry     beta= 0.70
     Davidson diagonalization with overlap
     ethr =  1.00E-06,  avg # of iterations =  2.0

     Threshold (ethr) on eigenvalues was too large:
     Diagonalizing with lowered threshold

     Davidson diagonalization with overlap
     ethr =  2.15E-08,  avg # of iterations =  4.0

     total cpu time spent up to now is       88.4 secs

     total energy              =    -922.12700442 Ry
     Harris-Foulkes estimate   =    -922.03231518 Ry
     estimated scf accuracy    <       0.00013011 Ry

     iteration #  2     ecut=    90.00 Ry     beta= 0.70
     Davidson diagonalization with overlap
     ethr =  1.16E-07,  avg # of iterations =  5.8

     total cpu time spent up to now is       90.3 secs

     total energy              =    -922.12688396 Ry
     Harris-Foulkes estimate   =    -922.12757276 Ry
     estimated scf accuracy    <       0.00355614 Ry

     iteration #  3     ecut=    90.00 Ry     beta= 0.70
     Davidson diagonalization with overlap
     ethr =  1.16E-07,  avg # of iterations =  5.0

     total cpu time spent up to now is       92.2 secs

     total energy              =    -922.12714268 Ry
     Harris-Foulkes estimate   =    -922.12715338 Ry
     estimated scf accuracy    <       0.00008072 Ry

     iteration #  4     ecut=    90.00 Ry     beta= 0.70
     Davidson diagonalization with overlap
     ethr =  7.21E-08,  avg # of iterations =  1.0

     total cpu time spent up to now is       92.9 secs

     total energy              =    -922.12713614 Ry
     Harris-Foulkes estimate   =    -922.12714405 Ry
     estimated scf accuracy    <       0.00005716 Ry

     iteration #  5     ecut=    90.00 Ry     beta= 0.70
     Davidson diagonalization with overlap
     ethr =  5.10E-08,  avg # of iterations =  2.0

     total cpu time spent up to now is       93.7 secs

     total energy              =    -922.12713736 Ry
     Harris-Foulkes estimate   =    -922.12713798 Ry
     estimated scf accuracy    <       0.00002761 Ry

     iteration #  6     ecut=    90.00 Ry     beta= 0.70
     Davidson diagonalization with overlap
     ethr =  2.46E-08,  avg # of iterations =  2.2

     total cpu time spent up to now is       94.5 secs

     total energy              =    -922.12713854 Ry
     Harris-Foulkes estimate   =    -922.12713829 Ry
     estimated scf accuracy    <       0.00002245 Ry

     iteration #  7     ecut=    90.00 Ry     beta= 0.70
     Davidson diagonalization with overlap
     ethr =  2.00E-08,  avg # of iterations =  1.0

     total cpu time spent up to now is       95.2 secs

     total energy              =    -922.12713743 Ry
     Harris-Foulkes estimate   =    -922.12713890 Ry
     estimated scf accuracy    <       0.00001971 Ry

     iteration #  8     ecut=    90.00 Ry     beta= 0.70
     Davidson diagonalization with overlap
     ethr =  1.76E-08,  avg # of iterations =  1.5

     total cpu time spent up to now is       95.9 secs

     total energy              =    -922.12713774 Ry
     Harris-Foulkes estimate   =    -922.12713808 Ry
     estimated scf accuracy    <       0.00001251 Ry

     iteration #  9     ecut=    90.00 Ry     beta= 0.70
     Davidson diagonalization with overlap
     ethr =  1.12E-08,  avg # of iterations =  4.2

     total cpu time spent up to now is       97.0 secs

     total energy              =    -922.12713849 Ry
     Harris-Foulkes estimate   =    -922.12713972 Ry
     estimated scf accuracy    <       0.00000443 Ry

     iteration # 10     ecut=    90.00 Ry     beta= 0.70
     Davidson diagonalization with overlap
     ethr =  3.95E-09,  avg # of iterations =  4.8

     total cpu time spent up to now is       98.2 secs

     total energy              =    -922.12713917 Ry
     Harris-Foulkes estimate   =    -922.12713970 Ry
     estimated scf accuracy    <       0.00000186 Ry

     iteration # 11     ecut=    90.00 Ry     beta= 0.70
     Davidson diagonalization with overlap
     ethr =  1.66E-09,  avg # of iterations =  4.0

     total cpu time spent up to now is       99.4 secs

     total energy              =    -922.12713952 Ry
     Harris-Foulkes estimate   =    -922.12713951 Ry
     estimated scf accuracy    <       0.00000069 Ry

     iteration # 12     ecut=    90.00 Ry     beta= 0.70
     Davidson diagonalization with overlap
     ethr =  6.19E-10,  avg # of iterations =  4.0

     total cpu time spent up to now is      100.4 secs

     total energy              =    -922.12713946 Ry
     Harris-Foulkes estimate   =    -922.12713960 Ry
     estimated scf accuracy    <       0.00000097 Ry

     iteration # 13     ecut=    90.00 Ry     beta= 0.70
     Davidson diagonalization with overlap
     ethr =  6.19E-10,  avg # of iterations =  3.8

     total cpu time spent up to now is      101.3 secs

     total energy              =    -922.12713938 Ry
     Harris-Foulkes estimate   =    -922.12713951 Ry
     estimated scf accuracy    <       0.00000054 Ry

     iteration # 14     ecut=    90.00 Ry     beta= 0.70
     Davidson diagonalization with overlap
     ethr =  4.80E-10,  avg # of iterations =  4.5

     total cpu time spent up to now is      102.7 secs

     total energy              =    -922.12713946 Ry
     Harris-Foulkes estimate   =    -922.12713956 Ry
     estimated scf accuracy    <       0.00000087 Ry

     iteration # 15     ecut=    90.00 Ry     beta= 0.70
     Davidson diagonalization with overlap
     ethr =  4.80E-10,  avg # of iterations =  1.0

     total cpu time spent up to now is      103.4 secs

     total energy              =    -922.12713934 Ry
     Harris-Foulkes estimate   =    -922.12713947 Ry
     estimated scf accuracy    <       0.00000056 Ry

     iteration # 16     ecut=    90.00 Ry     beta= 0.70
     Davidson diagonalization with overlap
     ethr =  4.80E-10,  avg # of iterations =  3.8

     total cpu time spent up to now is      104.7 secs

     total energy              =    -922.12713946 Ry
     Harris-Foulkes estimate   =    -922.12713945 Ry
     estimated scf accuracy    <       0.00000005 Ry

     iteration # 17     ecut=    90.00 Ry     beta= 0.70
     Davidson diagonalization with overlap
     ethr =  4.22E-11,  avg # of iterations =  4.5

     total cpu time spent up to now is      106.1 secs

     total energy              =    -922.12713943 Ry
     Harris-Foulkes estimate   =    -922.12713948 Ry
     estimated scf accuracy    <       0.00000027 Ry

     iteration # 18     ecut=    90.00 Ry     beta= 0.70
     Davidson diagonalization with overlap
     ethr =  4.22E-11,  avg # of iterations =  4.0

     total cpu time spent up to now is      107.4 secs

     total energy              =    -922.12713944 Ry
     Harris-Foulkes estimate   =    -922.12713945 Ry
     estimated scf accuracy    <       0.00000003 Ry

     iteration # 19     ecut=    90.00 Ry     beta= 0.70
     Davidson diagonalization with overlap
     ethr =  2.62E-11,  avg # of iterations =  1.8

     total cpu time spent up to now is      108.2 secs

     total energy              =    -922.12713944 Ry
     Harris-Foulkes estimate   =    -922.12713944 Ry
     estimated scf accuracy    <       0.00000002 Ry

     iteration # 20     ecut=    90.00 Ry     beta= 0.70
     Davidson diagonalization with overlap
     ethr =  1.55E-11,  avg # of iterations =  3.8

     total cpu time spent up to now is      109.1 secs

     total energy              =    -922.12713944 Ry
     Harris-Foulkes estimate   =    -922.12713944 Ry
     estimated scf accuracy    <          1.9E-09 Ry

     iteration # 21     ecut=    90.00 Ry     beta= 0.70
     Davidson diagonalization with overlap
     ethr =  1.66E-12,  avg # of iterations =  4.8

     total cpu time spent up to now is      110.5 secs

     total energy              =    -922.12713944 Ry
     Harris-Foulkes estimate   =    -922.12713944 Ry
     estimated scf accuracy    <          4.3E-09 Ry

     iteration # 22     ecut=    90.00 Ry     beta= 0.70
     Davidson diagonalization with overlap
     ethr =  1.66E-12,  avg # of iterations =  2.0

     total cpu time spent up to now is      111.2 secs

     total energy              =    -922.12713944 Ry
     Harris-Foulkes estimate   =    -922.12713944 Ry
     estimated scf accuracy    <          2.3E-09 Ry

     iteration # 23     ecut=    90.00 Ry     beta= 0.70
     Davidson diagonalization with overlap
     ethr =  1.66E-12,  avg # of iterations =  3.8

     total cpu time spent up to now is      112.2 secs

     total energy              =    -922.12713944 Ry
     Harris-Foulkes estimate   =    -922.12713944 Ry
     estimated scf accuracy    <          3.8E-10 Ry

     iteration # 24     ecut=    90.00 Ry     beta= 0.70
     Davidson diagonalization with overlap
     ethr =  3.38E-13,  avg # of iterations =  4.5

     total cpu time spent up to now is      113.6 secs

     total energy              =    -922.12713944 Ry
     Harris-Foulkes estimate   =    -922.12713944 Ry
     estimated scf accuracy    <          3.1E-11 Ry

     iteration # 25     ecut=    90.00 Ry     beta= 0.70
     Davidson diagonalization with overlap
     ethr =  1.00E-13,  avg # of iterations =  1.0

     total cpu time spent up to now is      114.3 secs

     total energy              =    -922.12713944 Ry
     Harris-Foulkes estimate   =    -922.12713944 Ry
     estimated scf accuracy    <          2.1E-11 Ry

     iteration # 26     ecut=    90.00 Ry     beta= 0.70
     Davidson diagonalization with overlap
     ethr =  1.00E-13,  avg # of iterations =  1.0

     total cpu time spent up to now is      115.0 secs

     total energy              =    -922.12713944 Ry
     Harris-Foulkes estimate   =    -922.12713944 Ry
     estimated scf accuracy    <          1.2E-11 Ry

     iteration # 27     ecut=    90.00 Ry     beta= 0.70
     Davidson diagonalization with overlap
     ethr =  1.00E-13,  avg # of iterations =  1.0

     total cpu time spent up to now is      115.7 secs

     total energy              =    -922.12713944 Ry
     Harris-Foulkes estimate   =    -922.12713944 Ry
     estimated scf accuracy    <          9.1E-12 Ry

     iteration # 28     ecut=    90.00 Ry     beta= 0.70
     Davidson diagonalization with overlap
     ethr =  1.00E-13,  avg # of iterations =  1.0

     total cpu time spent up to now is      116.4 secs

     total energy              =    -922.12713944 Ry
     Harris-Foulkes estimate   =    -922.12713944 Ry
     estimated scf accuracy    <          6.3E-12 Ry

     iteration # 29     ecut=    90.00 Ry     beta= 0.70
     Davidson diagonalization with overlap
     ethr =  1.00E-13,  avg # of iterations =  1.0

     total cpu time spent up to now is      117.2 secs

     total energy              =    -922.12713944 Ry
     Harris-Foulkes estimate   =    -922.12713944 Ry
     estimated scf accuracy    <          1.2E-12 Ry

     iteration # 30     ecut=    90.00 Ry     beta= 0.70
     Davidson diagonalization with overlap
     ethr =  1.00E-13,  avg # of iterations =  1.0

     total cpu time spent up to now is      117.9 secs

     End of self-consistent calculation

          k = 0.0000 0.0000 0.0000 ( 17775 PWs)   bands (ev):

   -59.9868 -59.9849 -59.9761 -59.9741 -34.0231 -34.0207 -34.0140 -34.0084
   -33.9278 -33.8747 -33.8485 -33.8186 -33.8161 -33.7979 -33.7845 -33.7820
   -13.5507 -13.4274 -12.4646 -12.3352 -12.2513 -12.2124 -11.8330 -11.8286
   -11.6709 -11.6507  -0.4274  -0.4143  -0.3691  -0.2568  -0.0840   0.3513
     1.0483   1.0915   1.3272   1.3283   1.5619   1.5997   1.8491   1.8493
     1.8860   1.9845   2.0652   2.0718   2.1764   2.2616   2.3592   2.4909
     2.5051   2.8934   3.0125   3.0393   3.0952   3.3122   3.3448   3.4063

          k = 0.0000 0.2636 0.0000 ( 17760 PWs)   bands (ev):

   -59.9868 -59.9848 -59.9761 -59.9741 -34.0247 -34.0223 -34.0171 -34.0116
   -33.9274 -33.8743 -33.8485 -33.8184 -33.8159 -33.7979 -33.7845 -33.7820
   -13.4781 -13.3652 -12.4011 -12.3079 -12.2483 -12.1939 -11.8416 -11.8192
   -11.6428 -11.6180  -0.4731  -0.4597  -0.4061  -0.3008  -0.2503   0.0275
     0.2815   0.4618   0.5044   0.6510   1.1457   1.2895   1.3465   1.7888
     1.8436   2.0537   2.2045   2.3002   2.4634   2.5267   2.6678   2.7734
     3.0212   3.0285   3.0765   3.1945   3.2134   3.4905   3.5636   3.7035

          k = 0.3332 0.0000 0.0000 ( 17818 PWs)   bands (ev):

   -59.9824 -59.9805 -59.9770 -59.9751 -34.0172 -34.0148 -34.0116 -34.0074
   -33.9241 -33.8968 -33.8840 -33.8743 -33.8285 -33.8229 -33.8074 -33.7969
   -12.9745 -12.8332 -12.3626 -12.1956 -12.1860 -12.1630 -11.7720 -11.7617
   -11.7300 -11.6875  -0.9328  -0.8565  -0.1094  -0.1016   0.0178   0.3509
     0.4793   0.8614   0.8681   1.1649   1.1988   1.2346   1.6021   1.7388
     1.7488   1.9125   1.9892   2.0094   2.0901   2.1591   2.2461   2.2984
     2.3306   2.7353   3.0216   3.1027   3.1898   3.3773   3.5564   3.6224

          k = 0.3332 0.2636 0.0000 ( 17778 PWs)   bands (ev):

   -59.9824 -59.9804 -59.9770 -59.9751 -34.0191 -34.0167 -34.0143 -34.0100
   -33.9237 -33.8966 -33.8836 -33.8741 -33.8284 -33.8229 -33.8074 -33.7969
   -12.9113 -12.7861 -12.3211 -12.1924 -12.1702 -12.1473 -11.7591 -11.7400
   -11.6618 -11.6442  -0.9350  -0.8568  -0.1765  -0.1706  -0.1030   0.1500
     0.2519   0.3903   0.4362   0.6647   0.7213   0.9413   1.2808   1.3106
     1.4198   1.4590   1.5828   1.6782   1.8400   2.2818   2.5063   2.6978
     2.9714   2.9784   3.3608   3.5547   3.5816   3.7385   3.7838   3.7900

     highest occupied level (ev):     3.7900

!    total energy              =    -922.12713944 Ry
     Harris-Foulkes estimate   =    -922.12713944 Ry
     estimated scf accuracy    <          4.8E-13 Ry

     The total energy is the sum of the following terms:

     one-electron contribution =    -591.70450065 Ry
     hartree contribution      =     335.13287582 Ry
     xc contribution           =    -174.08974074 Ry
     ewald contribution        =    -491.33540921 Ry
     Dispersion Correction     =      -0.13036466 Ry

     convergence has been achieved in  30 iterations

     Forces acting on atoms (cartesian axes, Ry/au):

     atom    1 type  1   force =     0.00000000    0.00029889    0.00009286
     atom    2 type  1   force =     0.00000000   -0.00029889   -0.00009286
     atom    3 type  1   force =     0.00000000   -0.00029889    0.00009286
     atom    4 type  1   force =    -0.00000000    0.00029889   -0.00009286
     atom    5 type  2   force =     0.00000000   -0.00022909    0.00009323
     atom    6 type  2   force =     0.00000000    0.00022909   -0.00009323
     atom    7 type  2   force =     0.00000000    0.00022909    0.00009323
     atom    8 type  2   force =     0.00000000   -0.00022909   -0.00009323
     atom    9 type  2   force =     0.00000000    0.00030952    0.00005117
     atom   10 type  2   force =    -0.00000000   -0.00030952   -0.00005117
     atom   11 type  2   force =    -0.00000000   -0.00030952    0.00005117
     atom   12 type  2   force =     0.00000000    0.00026876    0.00000000
     atom   13 type  2   force =     0.00000000   -0.00026876   -0.00000000
     atom   14 type  2   force =     0.00000000    0.00030952   -0.00005117

     Total force =     0.001084     Total SCF correction =     0.000001


     Computing stress (Cartesian axis) and pressure

          total   stress  (Ry/bohr**3)                   (kbar)     P=   -0.16
  -0.00000508   0.00000000   0.00000000         -0.75      0.00      0.00
   0.00000000   0.00000511   0.00000000          0.00      0.75      0.00
   0.00000000   0.00000000  -0.00000330          0.00      0.00     -0.49


     number of scf cycles    =   4
     number of bfgs steps    =   3

     enthalpy old            =    -922.1271352155 Ry
     enthalpy new            =    -922.1271394423 Ry

     CASE: enthalpy_new < enthalpy_old

     new trust radius        =       0.0025337684 bohr
     new conv_thr            =            1.0E-12 Ry

     new unit-cell volume =   1236.07164 a.u.^3 (   183.16692 Ang^3 )
     density =      3.29774 g/cm^3

CELL_PARAMETERS (alat=  6.68268247)
   1.000435020   0.000000000   0.000000000
   0.000000000   1.265031867   0.000000000
   0.000000000   0.000000000   3.272659441

ATOMIC_POSITIONS (crystal)
V        0.000000000   0.382878152   0.648063949
V        0.500000002   0.617121852   0.851936056
V        0.500000002   0.617121852   0.148063948
V       -0.000000000   0.382878152   0.351936054
O        0.500000002   0.492251273   0.681328140
O        0.000000000   0.507748731   0.818671865
O        0.000000000   0.507748731   0.181328139
O        0.500000002   0.492251273   0.318671863
O        0.000000000   0.029194435   0.354188802
O        0.500000002   0.970805569   0.145811201
O        0.500000002   0.970805569   0.854188803
O        0.500000002   0.509329907   0.000000000
O        0.000000000   0.490670097   0.500000002
O       -0.000000000   0.029194435   0.645811203



     Writing output data file v2o5.save/
     NEW-OLD atomic charge density approx. for the potential
     extrapolated charge  112.03548, renormalised to  112.00000

     total cpu time spent up to now is      120.6 secs

     Self-consistent Calculation

     iteration #  1     ecut=    90.00 Ry     beta= 0.70
     Davidson diagonalization with overlap
     ethr =  1.00E-06,  avg # of iterations =  2.8

     Threshold (ethr) on eigenvalues was too large:
     Diagonalizing with lowered threshold

     Davidson diagonalization with overlap
     ethr =  4.87E-08,  avg # of iterations =  4.0

     total cpu time spent up to now is      123.2 secs

     total energy              =    -922.12680294 Ry
     Harris-Foulkes estimate   =    -921.97318614 Ry
     estimated scf accuracy    <       0.00032517 Ry

     iteration #  2     ecut=    90.00 Ry     beta= 0.70
     Davidson diagonalization with overlap
     ethr =  2.90E-07,  avg # of iterations =  5.8

     total cpu time spent up to now is      125.1 secs

     total energy              =    -922.12649958 Ry
     Harris-Foulkes estimate   =    -922.12824208 Ry
     estimated scf accuracy    <       0.00905922 Ry

     iteration #  3     ecut=    90.00 Ry     beta= 0.70
     Davidson diagonalization with overlap
     ethr =  2.90E-07,  avg # of iterations =  5.0

     total cpu time spent up to now is      127.0 secs

     total energy              =    -922.12715310 Ry
     Harris-Foulkes estimate   =    -922.12718048 Ry
     estimated scf accuracy    <       0.00021183 Ry

     iteration #  4     ecut=    90.00 Ry     beta= 0.70
     Davidson diagonalization with overlap
     ethr =  1.89E-07,  avg # of iterations =  1.0

     total cpu time spent up to now is      127.7 secs

     total energy              =    -922.12713731 Ry
     Harris-Foulkes estimate   =    -922.12715654 Ry
     estimated scf accuracy    <       0.00015103 Ry

     iteration #  5     ecut=    90.00 Ry     beta= 0.70
     Davidson diagonalization with overlap
     ethr =  1.35E-07,  avg # of iterations =  2.0

     total cpu time spent up to now is      128.6 secs

     total energy              =    -922.12713990 Ry
     Harris-Foulkes estimate   =    -922.12714158 Ry
     estimated scf accuracy    <       0.00007839 Ry

     iteration #  6     ecut=    90.00 Ry     beta= 0.70
     Davidson diagonalization with overlap
     ethr =  7.00E-08,  avg # of iterations =  1.0

     total cpu time spent up to now is      129.3 secs

     total energy              =    -922.12714193 Ry
     Harris-Foulkes estimate   =    -922.12714173 Ry
     estimated scf accuracy    <       0.00006835 Ry

     iteration #  7     ecut=    90.00 Ry     beta= 0.70
     Davidson diagonalization with overlap
     ethr =  6.10E-08,  avg # of iterations =  1.0

     total cpu time spent up to now is      130.0 secs

     total energy              =    -922.12714226 Ry
     Harris-Foulkes estimate   =    -922.12714288 Ry
     estimated scf accuracy    <       0.00005895 Ry

     iteration #  8     ecut=    90.00 Ry     beta= 0.70
     Davidson diagonalization with overlap
     ethr =  5.26E-08,  avg # of iterations =  1.0

     total cpu time spent up to now is      130.7 secs

     total energy              =    -922.12713794 Ry
     Harris-Foulkes estimate   =    -922.12714309 Ry
     estimated scf accuracy    <       0.00005107 Ry

     iteration #  9     ecut=    90.00 Ry     beta= 0.70
     Davidson diagonalization with overlap
     ethr =  4.56E-08,  avg # of iterations =  3.0

     total cpu time spent up to now is      131.6 secs

     total energy              =    -922.12713619 Ry
     Harris-Foulkes estimate   =    -922.12714061 Ry
     estimated scf accuracy    <       0.00001940 Ry

     iteration # 10     ecut=    90.00 Ry     beta= 0.70
     Davidson diagonalization with overlap
     ethr =  1.73E-08,  avg # of iterations =  4.0

     total cpu time spent up to now is      132.9 secs

     total energy              =    -922.12714583 Ry
     Harris-Foulkes estimate   =    -922.12714590 Ry
     estimated scf accuracy    <       0.00001618 Ry

     iteration # 11     ecut=    90.00 Ry     beta= 0.70
     Davidson diagonalization with overlap
     ethr =  1.44E-08,  avg # of iterations =  1.0

     total cpu time spent up to now is      133.6 secs

     total energy              =    -922.12714445 Ry
     Harris-Foulkes estimate   =    -922.12714592 Ry
     estimated scf accuracy    <       0.00001601 Ry

     iteration # 12     ecut=    90.00 Ry     beta= 0.70
     Davidson diagonalization with overlap
     ethr =  1.43E-08,  avg # of iterations =  1.0

     total cpu time spent up to now is      134.3 secs

     total energy              =    -922.12714466 Ry
     Harris-Foulkes estimate   =    -922.12714459 Ry
     estimated scf accuracy    <       0.00001104 Ry

     iteration # 13     ecut=    90.00 Ry     beta= 0.70
     Davidson diagonalization with overlap
     ethr =  9.86E-09,  avg # of iterations =  1.0

     total cpu time spent up to now is      135.1 secs

     total energy              =    -922.12714405 Ry
     Harris-Foulkes estimate   =    -922.12714472 Ry
     estimated scf accuracy    <       0.00001115 Ry

     iteration # 14     ecut=    90.00 Ry     beta= 0.70
     Davidson diagonalization with overlap
     ethr =  9.86E-09,  avg # of iterations =  1.0

     total cpu time spent up to now is      135.8 secs

     total energy              =    -922.12714416 Ry
     Harris-Foulkes estimate   =    -922.12714421 Ry
[...]

     iteration #  3     ecut=    90.00 Ry     beta= 0.70
     Davidson diagonalization with overlap
     ethr =  6.83E-03,  avg # of iterations =  5.8

     total cpu time spent up to now is      895.9 secs

     total energy              =    -921.91094728 Ry
     Harris-Foulkes estimate   =    -922.67358843 Ry
     estimated scf accuracy    <       2.57489223 Ry

     iteration #  4     ecut=    90.00 Ry     beta= 0.70
     Davidson diagonalization with overlap
     ethr =  2.30E-03,  avg # of iterations =  3.8

     total cpu time spent up to now is      896.9 secs

     total energy              =    -922.06705753 Ry
     Harris-Foulkes estimate   =    -922.20135361 Ry
     estimated scf accuracy    <       0.85736354 Ry

     iteration #  5     ecut=    90.00 Ry     beta= 0.70
     Davidson diagonalization with overlap
     ethr =  7.66E-04,  avg # of iterations =  4.0

     total cpu time spent up to now is      897.9 secs

     total energy              =    -922.00749091 Ry
     Harris-Foulkes estimate   =    -922.13045043 Ry
     estimated scf accuracy    <       0.42885486 Ry

     iteration #  6     ecut=    90.00 Ry     beta= 0.70
     Davidson diagonalization with overlap
     ethr =  3.83E-04,  avg # of iterations =  4.0

     total cpu time spent up to now is      899.3 secs

     total energy              =    -922.13167134 Ry
     Harris-Foulkes estimate   =    -922.14662871 Ry
     estimated scf accuracy    <       0.15952655 Ry

     iteration #  7     ecut=    90.00 Ry     beta= 0.70
     Davidson diagonalization with overlap
     ethr =  1.42E-04,  avg # of iterations =  1.8

     total cpu time spent up to now is      900.1 secs

     total energy              =    -922.10840727 Ry
     Harris-Foulkes estimate   =    -922.13405893 Ry
     estimated scf accuracy    <       0.12175739 Ry

     iteration #  8     ecut=    90.00 Ry     beta= 0.70
     Davidson diagonalization with overlap
     ethr =  1.09E-04,  avg # of iterations =  3.5

     total cpu time spent up to now is      901.3 secs

     total energy              =    -922.12561499 Ry
     Harris-Foulkes estimate   =    -922.12628937 Ry
     estimated scf accuracy    <       0.00243220 Ry

     iteration #  9     ecut=    90.00 Ry     beta= 0.70
     Davidson diagonalization with overlap
     ethr =  2.17E-06,  avg # of iterations =  5.8

     total cpu time spent up to now is      902.9 secs

     total energy              =    -922.12713720 Ry
     Harris-Foulkes estimate   =    -922.12746442 Ry
     estimated scf accuracy    <       0.00253042 Ry

     iteration # 10     ecut=    90.00 Ry     beta= 0.70
     Davidson diagonalization with overlap
     ethr =  2.17E-06,  avg # of iterations =  2.2

     total cpu time spent up to now is      903.7 secs

     total energy              =    -922.12684005 Ry
     Harris-Foulkes estimate   =    -922.12720328 Ry
     estimated scf accuracy    <       0.00159583 Ry

     iteration # 11     ecut=    90.00 Ry     beta= 0.70
     Davidson diagonalization with overlap
     ethr =  1.42E-06,  avg # of iterations =  4.0

     total cpu time spent up to now is      904.9 secs

     total energy              =    -922.12713496 Ry
     Harris-Foulkes estimate   =    -922.12718458 Ry
     estimated scf accuracy    <       0.00017460 Ry

     iteration # 12     ecut=    90.00 Ry     beta= 0.70
     Davidson diagonalization with overlap
     ethr =  1.56E-07,  avg # of iterations =  4.5

     total cpu time spent up to now is      906.1 secs

     total energy              =    -922.12716096 Ry
     Harris-Foulkes estimate   =    -922.12716254 Ry
     estimated scf accuracy    <       0.00004009 Ry

     iteration # 13     ecut=    90.00 Ry     beta= 0.70
     Davidson diagonalization with overlap
     ethr =  3.58E-08,  avg # of iterations =  4.2

     total cpu time spent up to now is      907.2 secs

     total energy              =    -922.12716370 Ry
     Harris-Foulkes estimate   =    -922.12716740 Ry
     estimated scf accuracy    <       0.00002832 Ry

     iteration # 14     ecut=    90.00 Ry     beta= 0.70
     Davidson diagonalization with overlap
     ethr =  2.53E-08,  avg # of iterations =  1.5

     total cpu time spent up to now is      908.0 secs

     total energy              =    -922.12716161 Ry
     Harris-Foulkes estimate   =    -922.12716427 Ry
     estimated scf accuracy    <       0.00001775 Ry

     iteration # 15     ecut=    90.00 Ry     beta= 0.70
     Davidson diagonalization with overlap
     ethr =  1.58E-08,  avg # of iterations =  4.0

     total cpu time spent up to now is      909.1 secs

     total energy              =    -922.12716383 Ry
     Harris-Foulkes estimate   =    -922.12716395 Ry
     estimated scf accuracy    <       0.00000065 Ry

     iteration # 16     ecut=    90.00 Ry     beta= 0.70
     Davidson diagonalization with overlap
     ethr =  5.82E-10,  avg # of iterations =  6.0

     total cpu time spent up to now is      910.8 secs

     total energy              =    -922.12716455 Ry
     Harris-Foulkes estimate   =    -922.12716464 Ry
     estimated scf accuracy    <       0.00000078 Ry

     iteration # 17     ecut=    90.00 Ry     beta= 0.70
     Davidson diagonalization with overlap
     ethr =  5.82E-10,  avg # of iterations =  1.0

     total cpu time spent up to now is      911.5 secs

     total energy              =    -922.12716447 Ry
     Harris-Foulkes estimate   =    -922.12716456 Ry
     estimated scf accuracy    <       0.00000053 Ry

     iteration # 18     ecut=    90.00 Ry     beta= 0.70
     Davidson diagonalization with overlap
     ethr =  4.72E-10,  avg # of iterations =  4.0

     total cpu time spent up to now is      912.7 secs

     total energy              =    -922.12716456 Ry
     Harris-Foulkes estimate   =    -922.12716456 Ry
     estimated scf accuracy    <       0.00000012 Ry

     iteration # 19     ecut=    90.00 Ry     beta= 0.70
     Davidson diagonalization with overlap
     ethr =  1.05E-10,  avg # of iterations =  2.2

     total cpu time spent up to now is      913.6 secs

     total energy              =    -922.12716453 Ry
     Harris-Foulkes estimate   =    -922.12716456 Ry
     estimated scf accuracy    <       0.00000011 Ry

     iteration # 20     ecut=    90.00 Ry     beta= 0.70
     Davidson diagonalization with overlap
     ethr =  9.92E-11,  avg # of iterations =  3.0

     total cpu time spent up to now is      914.4 secs

     total energy              =    -922.12716453 Ry
     Harris-Foulkes estimate   =    -922.12716454 Ry
     estimated scf accuracy    <       0.00000004 Ry

     iteration # 21     ecut=    90.00 Ry     beta= 0.70
     Davidson diagonalization with overlap
     ethr =  3.16E-11,  avg # of iterations =  4.0

     total cpu time spent up to now is      915.8 secs

     total energy              =    -922.12716454 Ry
     Harris-Foulkes estimate   =    -922.12716454 Ry
     estimated scf accuracy    <          8.3E-09 Ry

     iteration # 22     ecut=    90.00 Ry     beta= 0.70
     Davidson diagonalization with overlap
     ethr =  7.45E-12,  avg # of iterations =  2.5

     total cpu time spent up to now is      916.7 secs

     total energy              =    -922.12716454 Ry
     Harris-Foulkes estimate   =    -922.12716454 Ry
     estimated scf accuracy    <          4.4E-09 Ry

     iteration # 23     ecut=    90.00 Ry     beta= 0.70
     Davidson diagonalization with overlap
     ethr =  3.96E-12,  avg # of iterations =  4.0

     total cpu time spent up to now is      917.9 secs

     total energy              =    -922.12716454 Ry
     Harris-Foulkes estimate   =    -922.12716454 Ry
     estimated scf accuracy    <          1.1E-09 Ry

     iteration # 24     ecut=    90.00 Ry     beta= 0.70
     Davidson diagonalization with overlap
     ethr =  9.52E-13,  avg # of iterations =  1.8

     total cpu time spent up to now is      918.7 secs

     total energy              =    -922.12716454 Ry
     Harris-Foulkes estimate   =    -922.12716454 Ry
     estimated scf accuracy    <          9.7E-10 Ry

     iteration # 25     ecut=    90.00 Ry     beta= 0.70
     Davidson diagonalization with overlap
     ethr =  8.66E-13,  avg # of iterations =  1.0

     total cpu time spent up to now is      919.5 secs

     total energy              =    -922.12716454 Ry
     Harris-Foulkes estimate   =    -922.12716454 Ry
     estimated scf accuracy    <          7.4E-10 Ry

     iteration # 26     ecut=    90.00 Ry     beta= 0.70
     Davidson diagonalization with overlap
     ethr =  6.58E-13,  avg # of iterations =  2.8

     total cpu time spent up to now is      920.4 secs

     total energy              =    -922.12716454 Ry
     Harris-Foulkes estimate   =    -922.12716454 Ry
     estimated scf accuracy    <          3.2E-10 Ry

     iteration # 27     ecut=    90.00 Ry     beta= 0.70
     Davidson diagonalization with overlap
     ethr =  2.84E-13,  avg # of iterations =  4.0

     total cpu time spent up to now is      921.7 secs

     total energy              =    -922.12716454 Ry
     Harris-Foulkes estimate   =    -922.12716454 Ry
     estimated scf accuracy    <          1.3E-10 Ry

     iteration # 28     ecut=    90.00 Ry     beta= 0.70
     Davidson diagonalization with overlap
     ethr =  1.13E-13,  avg # of iterations =  2.0

     total cpu time spent up to now is      922.4 secs

     total energy              =    -922.12716454 Ry
     Harris-Foulkes estimate   =    -922.12716454 Ry
     estimated scf accuracy    <          7.3E-11 Ry

     iteration # 29     ecut=    90.00 Ry     beta= 0.70
     Davidson diagonalization with overlap
     ethr =  1.00E-13,  avg # of iterations =  3.5

     total cpu time spent up to now is      923.4 secs

     total energy              =    -922.12716454 Ry
     Harris-Foulkes estimate   =    -922.12716454 Ry
     estimated scf accuracy    <          4.7E-11 Ry

     iteration # 30     ecut=    90.00 Ry     beta= 0.70
     Davidson diagonalization with overlap
     ethr =  1.00E-13,  avg # of iterations =  4.0

     total cpu time spent up to now is      924.7 secs

     total energy              =    -922.12716454 Ry
     Harris-Foulkes estimate   =    -922.12716454 Ry
     estimated scf accuracy    <          3.7E-10 Ry

     iteration # 31     ecut=    90.00 Ry     beta= 0.70
     Davidson diagonalization with overlap
     ethr =  1.00E-13,  avg # of iterations =  3.0

     total cpu time spent up to now is      925.6 secs

     total energy              =    -922.12716454 Ry
     Harris-Foulkes estimate   =    -922.12716454 Ry
     estimated scf accuracy    <          3.3E-10 Ry

     iteration # 32     ecut=    90.00 Ry     beta= 0.70
     Davidson diagonalization with overlap
     ethr =  1.00E-13,  avg # of iterations =  1.5

     total cpu time spent up to now is      926.4 secs

     total energy              =    -922.12716454 Ry
     Harris-Foulkes estimate   =    -922.12716454 Ry
     estimated scf accuracy    <          3.2E-10 Ry

     iteration # 33     ecut=    90.00 Ry     beta= 0.70
     Davidson diagonalization with overlap
     ethr =  1.00E-13,  avg # of iterations =  1.0

     total cpu time spent up to now is      927.1 secs

     total energy              =    -922.12716454 Ry
     Harris-Foulkes estimate   =    -922.12716454 Ry
     estimated scf accuracy    <          2.6E-10 Ry

     iteration # 34     ecut=    90.00 Ry     beta= 0.70
     Davidson diagonalization with overlap
     ethr =  1.00E-13,  avg # of iterations =  2.5

     total cpu time spent up to now is      928.0 secs

     total energy              =    -922.12716454 Ry
     Harris-Foulkes estimate   =    -922.12716454 Ry
     estimated scf accuracy    <          1.7E-10 Ry

     iteration # 35     ecut=    90.00 Ry     beta= 0.70
     Davidson diagonalization with overlap
     ethr =  1.00E-13,  avg # of iterations =  3.5

     total cpu time spent up to now is      929.0 secs

     total energy              =    -922.12716454 Ry
     Harris-Foulkes estimate   =    -922.12716454 Ry
     estimated scf accuracy    <          2.9E-11 Ry

     iteration # 36     ecut=    90.00 Ry     beta= 0.70
     Davidson diagonalization with overlap
     ethr =  1.00E-13,  avg # of iterations =  2.8

     total cpu time spent up to now is      929.8 secs

     total energy              =    -922.12716454 Ry
     Harris-Foulkes estimate   =    -922.12716454 Ry
     estimated scf accuracy    <          1.0E-11 Ry

     iteration # 37     ecut=    90.00 Ry     beta= 0.70
     Davidson diagonalization with overlap
     ethr =  1.00E-13,  avg # of iterations =  1.0

     total cpu time spent up to now is      930.6 secs

     total energy              =    -922.12716454 Ry
     Harris-Foulkes estimate   =    -922.12716454 Ry
     estimated scf accuracy    <          3.5E-12 Ry

     iteration # 38     ecut=    90.00 Ry     beta= 0.70
     Davidson diagonalization with overlap
     ethr =  1.00E-13,  avg # of iterations =  1.0

     total cpu time spent up to now is      931.3 secs

     End of self-consistent calculation

          k = 0.0000 0.0000 0.0000 ( 17839 PWs)   bands (ev):

   -60.0209 -60.0189 -60.0101 -60.0081 -34.0576 -34.0553 -34.0484 -34.0428
   -33.9624 -33.9091 -33.8829 -33.8533 -33.8508 -33.8321 -33.8191 -33.8166
   -13.5891 -13.4663 -12.5002 -12.3729 -12.2894 -12.2494 -11.8640 -11.8608
   -11.7021 -11.6836  -0.4706  -0.4575  -0.4052  -0.2991  -0.1201   0.3075
     1.0008   1.0550   1.2856   1.2905   1.5204   1.5591   1.8047   1.8149
     1.8389   1.9447   2.0281   2.0403   2.1408   2.2308   2.3286   2.4492
     2.4764   2.8487   2.9816   3.0085   3.0599   3.2793   3.3042   3.3716

          k = 0.0000 0.2626 0.0000 ( 17856 PWs)   bands (ev):

   -60.0208 -60.0189 -60.0101 -60.0081 -34.0592 -34.0568 -34.0514 -34.0458
   -33.9620 -33.9087 -33.8829 -33.8531 -33.8506 -33.8321 -33.8191 -33.8166
   -13.5192 -13.4066 -12.4395 -12.3472 -12.2865 -12.2313 -11.8738 -11.8510
   -11.6766 -11.6511  -0.5145  -0.5012  -0.4406  -0.3416  -0.2846   0.0002
     0.2463   0.4307   0.4794   0.6223   1.1238   1.2571   1.3146   1.7590
     1.8137   2.0179   2.1681   2.2633   2.4244   2.4916   2.6306   2.7389
     2.9868   2.9929   3.0312   3.1535   3.1741   3.4480   3.5212   3.6582

          k = 0.3332 0.0000 0.0000 ( 17866 PWs)   bands (ev):

   -60.0164 -60.0145 -60.0110 -60.0091 -34.0517 -34.0493 -34.0461 -34.0418
   -33.9587 -33.9315 -33.9185 -33.9090 -33.8630 -33.8575 -33.8418 -33.8312
   -13.0123 -12.8721 -12.3983 -12.2352 -12.2249 -12.2004 -11.8027 -11.7937
   -11.7593 -11.7195  -0.9733  -0.8965  -0.1443  -0.1420  -0.0184   0.3128
     0.4404   0.8186   0.8242   1.1229   1.1596   1.1973   1.5633   1.7003
     1.7138   1.8707   1.9403   1.9781   2.0434   2.1308   2.1987   2.2572
     2.2993   2.6955   2.9882   3.0732   3.1575   3.3468   3.5232   3.5849

          k = 0.3332 0.2626 0.0000 ( 17864 PWs)   bands (ev):

   -60.0164 -60.0144 -60.0110 -60.0091 -34.0536 -34.0511 -34.0486 -34.0443
   -33.9584 -33.9313 -33.9181 -33.9088 -33.8630 -33.8575 -33.8419 -33.8312
   -12.9516 -12.8269 -12.3587 -12.2322 -12.2095 -12.1850 -11.7918 -11.7724
   -11.6951 -11.6767  -0.9754  -0.8968  -0.2141  -0.2038  -0.1367   0.1213
     0.2183   0.3554   0.4078   0.6366   0.6960   0.9016   1.2587   1.2766
     1.3851   1.4298   1.5539   1.6471   1.8055   2.2453   2.4675   2.6627
     2.9286   2.9422   3.3154   3.5117   3.5385   3.6948   3.7431   3.7495

     highest occupied level (ev):     3.7495

!    total energy              =    -922.12716454 Ry
     Harris-Foulkes estimate   =    -922.12716454 Ry
     estimated scf accuracy    <          2.9E-13 Ry

     The total energy is the sum of the following terms:

     one-electron contribution =    -594.18344368 Ry
     hartree contribution      =     336.22498425 Ry
     xc contribution           =    -174.08964467 Ry
     ewald contribution        =    -489.94912852 Ry
     Dispersion Correction     =      -0.12993191 Ry

     convergence has been achieved in  38 iterations

     Forces acting on atoms (cartesian axes, Ry/au):

     atom    1 type  1   force =     0.00000000   -0.00001079   -0.00000329
     atom    2 type  1   force =     0.00000000    0.00001079    0.00000329
     atom    3 type  1   force =    -0.00000000    0.00001079   -0.00000329
     atom    4 type  1   force =    -0.00000000   -0.00001079    0.00000329
     atom    5 type  2   force =     0.00000000    0.00000357   -0.00000969
     atom    6 type  2   force =     0.00000000   -0.00000357    0.00000969
     atom    7 type  2   force =     0.00000000   -0.00000357   -0.00000969
     atom    8 type  2   force =     0.00000000    0.00000357    0.00000969
     atom    9 type  2   force =     0.00000000    0.00001770   -0.00000749
     atom   10 type  2   force =    -0.00000000   -0.00001770    0.00000749
     atom   11 type  2   force =     0.00000000   -0.00001770   -0.00000749
     atom   12 type  2   force =    -0.00000000    0.00000411    0.00000000
     atom   13 type  2   force =     0.00000000   -0.00000411    0.00000000
     atom   14 type  2   force =     0.00000000    0.00001770    0.00000749

     Total force =     0.000049     Total SCF correction =     0.000001


     Computing stress (Cartesian axis) and pressure

          total   stress  (Ry/bohr**3)                   (kbar)     P=   -0.00
  -0.00000000   0.00000000   0.00000000         -0.00      0.00      0.00
   0.00000000  -0.00000010   0.00000000          0.00     -0.01      0.00
   0.00000000   0.00000000   0.00000005          0.00      0.00      0.01


     Writing output data file v2o5.save/

     init_run     :      1.68s CPU      1.70s WALL (       2 calls)
     electrons    :    844.18s CPU    857.99s WALL (      28 calls)
     update_pot   :     19.42s CPU     19.50s WALL (      26 calls)
     forces       :     19.66s CPU     19.97s WALL (      28 calls)
     stress       :     32.51s CPU     32.65s WALL (      28 calls)

     Called by init_run:
     wfcinit      :      0.76s CPU      0.77s WALL (       2 calls)
     potinit      :      0.29s CPU      0.29s WALL (       2 calls)
     hinit0       :      0.57s CPU      0.57s WALL (       2 calls)

     Called by electrons:
     c_bands      :    785.69s CPU    797.32s WALL (     800 calls)
     sum_band     :     46.31s CPU     47.21s WALL (     800 calls)
     v_of_rho     :      7.48s CPU      8.16s WALL (     807 calls)
     mix_rho      :      2.90s CPU      3.02s WALL (     800 calls)

     Called by c_bands:
     init_us_2    :      9.46s CPU      9.85s WALL (    6632 calls)
     cegterg      :    753.15s CPU    763.82s WALL (    3200 calls)

     Called by sum_band:

     Called by *egterg:
     h_psi        :    427.37s CPU    433.26s WALL (   12733 calls)
     g_psi        :      1.37s CPU      1.38s WALL (    9525 calls)
     cdiaghg      :    110.71s CPU    113.41s WALL (   12537 calls)

     Called by h_psi:
     h_psi:pot    :    425.96s CPU    431.80s WALL (   12733 calls)
     h_psi:calbec :    125.73s CPU    128.23s WALL (   12733 calls)
     vloc_psi     :    198.37s CPU    201.49s WALL (   12733 calls)
     add_vuspsi   :    101.77s CPU    102.01s WALL (   12733 calls)

     General routines
     calbec       :    133.56s CPU    136.30s WALL (   13293 calls)
     fft          :      6.18s CPU      6.72s WALL (    8789 calls)
     ffts         :      0.62s CPU      0.65s WALL (     800 calls)
     fftw         :    212.24s CPU    215.58s WALL ( 1117284 calls)

     Parallel routines
     fft_scatt_xy :     19.26s CPU     19.56s WALL ( 1126873 calls)
     fft_scatt_yz :     96.45s CPU     98.44s WALL ( 1126873 calls)

     PWSCF        :  15m18.36s CPU  15m32.97s WALL


   This run was terminated on:  22:30: 4  17May2024            

=------------------------------------------------------------------------------=
   JOB DONE.
=------------------------------------------------------------------------------=
