
     Program PWSCF v.6.4.1 starts on 18May2024 at 22:47:29 

     This program is part of the open-source Quantum ESPRESSO suite
     for quantum simulation of materials; please cite
         "P. Giannozzi et al., J. Phys.:Condens. Matter 21 395502 (2009);
         "P. Giannozzi et al., J. Phys.:Condens. Matter 29 465901 (2017);
          URL http://www.quantum-espresso.org", 
     in publications or presentations arising from this work. More details at
     http://www.quantum-espresso.org/quote

     Parallel version (MPI), running on    32 processors

     MPI processes distributed on     1 nodes
     R & G space division:  proc/nbgrp/npool/nimage =      32
     Reading input from v2o5.vc.in
Warning: card O       -0.000000000   0.048914545   0.643203052 ignored

     Current dimensions of program PWSCF are:
     Max number of different atomic species (ntypx) = 10
     Max number of k-points (npk) =  40000
     Max angular momentum in pseudopotentials (lmaxx) =  3

     IMPORTANT: XC functional enforced from input :
     Exchange-correlation      = VDW-DF ( 1  4  4  0 1 0)
     Any further DFT definition will be discarded
     Please, verify this is what you really want


     Subspace diagonalization in iterative solution of the eigenvalue problem:
     one sub-group per band group will be used
     ELPA distributed-memory algorithm (size of sub-group:  4*  4 procs)


     Parallelization info
     --------------------
     sticks:   dense  smooth     PW     G-vecs:    dense   smooth      PW
     Min          24      24      6                 1404     1404     206
     Max          25      25      7                 1414     1414     217
     Sum         769     769    217                45145    45145    6767



     bravais-lattice index     =            8
     lattice parameter (alat)  =       6.7676  a.u.
     unit-cell volume          =    1320.1235 (a.u.)^3
     number of atoms/cell      =           14
     number of atomic types    =            2
     number of electrons       =       112.00
     number of Kohn-Sham states=           56
     kinetic-energy cutoff     =      40.0000  Ry
     charge density cutoff     =     160.0000  Ry
     convergence threshold     =      1.0E-10
     mixing beta               =       0.7000
     number of iterations used =            8  plain     mixing
     Exchange-correlation      = VDW-DF ( 1  4  4  0 1 0)
     nstep                     =          500


     celldm(1)=   6.767583  celldm(2)=   1.308375  celldm(3)=   3.255230
     celldm(4)=   0.000000  celldm(5)=   0.000000  celldm(6)=   0.000000

     crystal axes: (cart. coord. in units of alat)
               a(1) = (   1.000000   0.000000   0.000000 )  
               a(2) = (   0.000000   1.308375   0.000000 )  
               a(3) = (   0.000000   0.000000   3.255230 )  

     reciprocal axes: (cart. coord. in units 2 pi/alat)
               b(1) = (  1.000000  0.000000  0.000000 )  
               b(2) = (  0.000000  0.764307  0.000000 )  
               b(3) = (  0.000000  0.000000  0.307198 )  


     PseudoPot. # 1 for V  read from file:
     /home/mpicuntureo/pseudos/v.nc.upf
     MD5 check sum: 40fb93c06b4f9d8c28c5ccd071294a04
     Pseudo is Norm-conserving + core correction, Zval = 13.0
     Generated using ONCVPSP code by D. R. Hamann
     Using radial grid of 1536 points,  6 beta functions with: 
                l(1) =   0
                l(2) =   0
                l(3) =   1
                l(4) =   1
                l(5) =   2
                l(6) =   2

     PseudoPot. # 2 for O  read from file:
     /home/mpicuntureo/pseudos/o.nc.upf
     MD5 check sum: 3e3f909f7470e8921608ab6b1f57bbae
     Pseudo is Norm-conserving + core correction, Zval =  6.0
     Generated using ONCVPSP code by D. R. Hamann
     Using radial grid of  936 points,  5 beta functions with: 
                l(1) =   0
                l(2) =   0
                l(3) =   1
                l(4) =   1
                l(5) =   2

     vdW kernel table read from file vdW_kernel_table
     MD5 check sum: 8c4337f4b28e1601c069d7ef7b6561bc

     atomic species   valence    mass     pseudopotential
        V             13.00    50.94150     V ( 1.00)
        O              6.00    15.99940     O ( 1.00)

      8 Sym. Ops., with inversion, found ( 4 have fractional translation)



   Cartesian axes

     site n.     atom                  positions (alat units)
         1           V   tau(   1) = (   0.0000000   0.5083212   2.1085108  )
         2           V   tau(   2) = (   0.5000000   0.8000533   2.7743339  )
         3           V   tau(   3) = (   0.5000000   0.8000533   0.4808959  )
         4           V   tau(   4) = (   0.0000000   0.5083212   1.1467190  )
         5           O   tau(   5) = (   0.5000000   0.6458297   2.2175314  )
         6           O   tau(   6) = (   0.0000000   0.6625449   2.6653133  )
         7           O   tau(   7) = (   0.0000000   0.6625449   0.5899165  )
         8           O   tau(   8) = (   0.5000000   0.6458297   1.0376984  )
         9           O   tau(   9) = (   0.0000000   0.0639985   1.1614561  )
        10           O   tau(  10) = (   0.5000000   1.2443760   0.4661588  )
        11           O   tau(  11) = (   0.5000000   1.2443760   2.7890710  )
        12           O   tau(  12) = (   0.5000000   0.6549630   0.0000000  )
        13           O   tau(  13) = (   0.0000000   0.6534115   1.6276149  )
        14           O   tau(  14) = (   0.0000000   0.0639985   2.0937737  )

     number of k points=     4
                       cart. coord. in units 2pi/alat
        k(    1) = (   0.0000000   0.0000000   0.0000000), wk =   0.2222222
        k(    2) = (   0.0000000   0.2547691   0.0000000), wk =   0.4444444
        k(    3) = (   0.3333333   0.0000000   0.0000000), wk =   0.4444444
        k(    4) = (   0.3333333   0.2547691   0.0000000), wk =   0.8888889

     Dense  grid:    45145 G-vectors     FFT dimensions: (  30,  36,  90)

     Estimated max dynamical RAM per process >       8.04 MB

     Estimated total dynamical RAM >     257.42 MB

     Check: negative core charge=   -0.000578

     Initial potential from superposition of free atoms

     starting charge  111.99579, renormalised to  112.00000


     %%%%%%%%%%%%%%%%%%%%%%%%%%%%%%%%%%%%%%%%%%%%%%%%%%%%%%%%%%%%%%%%%%%%%%%%
     %                                                                      %
     % You are using vdW-DF, which was implemented by the Thonhauser group. %
     % Please cite the following two papers that made this development      %
     % possible and the two reviews that describe the various versions:     %
     %                                                                      %
     %   T. Thonhauser et al., PRL 115, 136402 (2015).                      %
     %   T. Thonhauser et al., PRB 76, 125112 (2007).                       %
     %   K. Berland et al., Rep. Prog. Phys. 78, 066501 (2015).             %
     %   D.C. Langreth et al., J. Phys.: Condens. Matter 21, 084203 (2009). %
     %                                                                      %
     %                                                                      %
     % If you are calculating the stress with vdW-DF, please also cite:     %
     %                                                                      %
     %   R. Sabatini et al., J. Phys.: Condens. Matter 24, 424209 (2012).   %
     %                                                                      %
     %%%%%%%%%%%%%%%%%%%%%%%%%%%%%%%%%%%%%%%%%%%%%%%%%%%%%%%%%%%%%%%%%%%%%%%%


     Starting wfcs are   80 randomized atomic wfcs

     total cpu time spent up to now is        0.8 secs

     Self-consistent Calculation

     iteration #  1     ecut=    40.00 Ry     beta= 0.70
     Davidson diagonalization with overlap
     ethr =  1.00E-02,  avg # of iterations =  2.0

     total cpu time spent up to now is        1.2 secs

     total energy              =    -918.09394730 Ry
     Harris-Foulkes estimate   =    -924.72790727 Ry
     estimated scf accuracy    <       8.31036919 Ry

     iteration #  2     ecut=    40.00 Ry     beta= 0.70
     Davidson diagonalization with overlap
     ethr =  7.42E-03,  avg # of iterations =  6.0

     total cpu time spent up to now is        2.2 secs

     total energy              =    -907.87172324 Ry
     Harris-Foulkes estimate   =    -938.29667119 Ry
     estimated scf accuracy    <     129.21012972 Ry

     iteration #  3     ecut=    40.00 Ry     beta= 0.70
     Davidson diagonalization with overlap
     ethr =  7.42E-03,  avg # of iterations =  5.2

     total cpu time spent up to now is        3.1 secs

     total energy              =    -922.79807334 Ry
     Harris-Foulkes estimate   =    -923.57052926 Ry
     estimated scf accuracy    <       2.97729761 Ry

     iteration #  4     ecut=    40.00 Ry     beta= 0.70
     Davidson diagonalization with overlap
     ethr =  2.66E-03,  avg # of iterations =  2.5

     total cpu time spent up to now is        3.5 secs

     total energy              =    -922.82274000 Ry
     Harris-Foulkes estimate   =    -923.03102172 Ry
     estimated scf accuracy    <       1.25692010 Ry

     iteration #  5     ecut=    40.00 Ry     beta= 0.70
     Davidson diagonalization with overlap
     ethr =  1.12E-03,  avg # of iterations =  3.0

     total cpu time spent up to now is        3.9 secs

     total energy              =    -922.77505229 Ry
     Harris-Foulkes estimate   =    -922.90270365 Ry
     estimated scf accuracy    <       0.54269386 Ry

     iteration #  6     ecut=    40.00 Ry     beta= 0.70
     Davidson diagonalization with overlap
     ethr =  4.85E-04,  avg # of iterations =  4.2

     total cpu time spent up to now is        4.5 secs

     total energy              =    -922.91761323 Ry
     Harris-Foulkes estimate   =    -922.92768186 Ry
     estimated scf accuracy    <       0.07771615 Ry

     iteration #  7     ecut=    40.00 Ry     beta= 0.70
     Davidson diagonalization with overlap
     ethr =  6.94E-05,  avg # of iterations =  4.5

     total cpu time spent up to now is        5.0 secs

     total energy              =    -922.91401276 Ry
     Harris-Foulkes estimate   =    -922.92766542 Ry
     estimated scf accuracy    <       0.07205901 Ry

     iteration #  8     ecut=    40.00 Ry     beta= 0.70
     Davidson diagonalization with overlap
     ethr =  6.43E-05,  avg # of iterations =  2.5

     total cpu time spent up to now is        5.4 secs

     total energy              =    -922.91134124 Ry
     Harris-Foulkes estimate   =    -922.91720362 Ry
     estimated scf accuracy    <       0.02925296 Ry

     iteration #  9     ecut=    40.00 Ry     beta= 0.70
     Davidson diagonalization with overlap
     ethr =  2.61E-05,  avg # of iterations =  4.0

     total cpu time spent up to now is        5.9 secs

     total energy              =    -922.91740448 Ry
     Harris-Foulkes estimate   =    -922.91785027 Ry
     estimated scf accuracy    <       0.00125617 Ry

     iteration # 10     ecut=    40.00 Ry     beta= 0.70
     Davidson diagonalization with overlap
     ethr =  1.12E-06,  avg # of iterations =  4.2

     total cpu time spent up to now is        6.6 secs

     total energy              =    -922.91770815 Ry
     Harris-Foulkes estimate   =    -922.91776881 Ry
     estimated scf accuracy    <       0.00016725 Ry

     iteration # 11     ecut=    40.00 Ry     beta= 0.70
     Davidson diagonalization with overlap
     ethr =  1.49E-07,  avg # of iterations =  4.0

     total cpu time spent up to now is        7.2 secs

     total energy              =    -922.91774547 Ry
     Harris-Foulkes estimate   =    -922.91775469 Ry
     estimated scf accuracy    <       0.00003033 Ry

     iteration # 12     ecut=    40.00 Ry     beta= 0.70
     Davidson diagonalization with overlap
     ethr =  2.71E-08,  avg # of iterations =  4.0

     total cpu time spent up to now is        7.7 secs

     total energy              =    -922.91775021 Ry
     Harris-Foulkes estimate   =    -922.91775082 Ry
     estimated scf accuracy    <       0.00000304 Ry

     iteration # 13     ecut=    40.00 Ry     beta= 0.70
     Davidson diagonalization with overlap
     ethr =  2.72E-09,  avg # of iterations =  4.2

     total cpu time spent up to now is        8.2 secs

     total energy              =    -922.91775035 Ry
     Harris-Foulkes estimate   =    -922.91775056 Ry
     estimated scf accuracy    <       0.00000114 Ry

     iteration # 14     ecut=    40.00 Ry     beta= 0.70
     Davidson diagonalization with overlap
     ethr =  1.02E-09,  avg # of iterations =  4.0

     total cpu time spent up to now is        8.7 secs

     total energy              =    -922.91775043 Ry
     Harris-Foulkes estimate   =    -922.91775049 Ry
     estimated scf accuracy    <       0.00000025 Ry

     iteration # 15     ecut=    40.00 Ry     beta= 0.70
     Davidson diagonalization with overlap
     ethr =  2.25E-10,  avg # of iterations =  4.0

     total cpu time spent up to now is        9.2 secs

     total energy              =    -922.91775046 Ry
     Harris-Foulkes estimate   =    -922.91775046 Ry
     estimated scf accuracy    <       0.00000002 Ry

     iteration # 16     ecut=    40.00 Ry     beta= 0.70
     Davidson diagonalization with overlap
     ethr =  2.23E-11,  avg # of iterations =  4.5

     total cpu time spent up to now is        9.8 secs

     total energy              =    -922.91775047 Ry
     Harris-Foulkes estimate   =    -922.91775047 Ry
     estimated scf accuracy    <          3.4E-09 Ry

     iteration # 17     ecut=    40.00 Ry     beta= 0.70
     Davidson diagonalization with overlap
     ethr =  3.06E-12,  avg # of iterations =  4.0

     total cpu time spent up to now is       10.2 secs

     total energy              =    -922.91775047 Ry
     Harris-Foulkes estimate   =    -922.91775047 Ry
     estimated scf accuracy    <          1.9E-09 Ry

     iteration # 18     ecut=    40.00 Ry     beta= 0.70
     Davidson diagonalization with overlap
     ethr =  1.68E-12,  avg # of iterations =  4.0

     total cpu time spent up to now is       10.8 secs

     total energy              =    -922.91775047 Ry
     Harris-Foulkes estimate   =    -922.91775047 Ry
     estimated scf accuracy    <          1.7E-10 Ry

     iteration # 19     ecut=    40.00 Ry     beta= 0.70
     Davidson diagonalization with overlap
     ethr =  1.51E-13,  avg # of iterations =  4.0

     total cpu time spent up to now is       11.3 secs

     total energy              =    -922.91775047 Ry
     Harris-Foulkes estimate   =    -922.91775047 Ry
     estimated scf accuracy    <          2.1E-10 Ry

     iteration # 20     ecut=    40.00 Ry     beta= 0.70
     Davidson diagonalization with overlap
     ethr =  1.51E-13,  avg # of iterations =  3.5

     total cpu time spent up to now is       11.7 secs

     End of self-consistent calculation

          k = 0.0000 0.0000 0.0000 (  5641 PWs)   bands (ev):

   -62.3682 -62.3658 -62.3630 -62.3488 -36.6337 -36.6291 -36.6194 -36.6163
   -36.5857 -36.5428 -36.5155 -36.4967 -36.4908 -36.4861 -36.4723 -36.4609
   -14.7121 -14.6100 -13.7492 -13.6073 -13.5709 -13.5603 -13.1422 -13.1256
   -13.0006 -12.9946  -1.1570  -1.1466  -1.0411  -0.9045  -0.8903  -0.4147
     0.2974   0.3776   0.5623   0.6111   0.7838   0.8482   1.0689   1.0714
     1.0813   1.2241   1.4216   1.4311   1.5032   1.6645   1.6878   1.7278
     1.8335   2.0555   2.2303   2.2677   2.3788   2.5705   2.6007   2.6556

          k = 0.0000 0.2548 0.0000 (  5638 PWs)   bands (ev):

   -62.3753 -62.3614 -62.3611 -62.3462 -36.6398 -36.6317 -36.6266 -36.6218
   -36.5761 -36.5445 -36.5146 -36.4924 -36.4889 -36.4805 -36.4656 -36.4635
   -14.6727 -14.5777 -13.7133 -13.5921 -13.5589 -13.5563 -13.1555 -13.1236
   -13.0044 -12.9680  -1.1744  -1.1445  -1.0822  -0.9671  -0.9408  -0.5738
    -0.4579  -0.2086  -0.1447  -0.0040   0.5553   0.6265   0.6865   1.0751
     1.2098   1.4171   1.5035   1.5504   1.6746   1.8403   1.9159   2.0292
     2.2263   2.2400   2.2468   2.4167   2.4725   2.7028   2.7690   2.8861

          k = 0.3333 0.0000 0.0000 (  5626 PWs)   bands (ev):

   -62.3609 -62.3607 -62.3518 -62.3431 -36.6271 -36.6264 -36.6178 -36.6156
   -36.5787 -36.5540 -36.5465 -36.5363 -36.4985 -36.4888 -36.4837 -36.4739
   -14.2078 -14.0946 -13.6725 -13.5321 -13.5258 -13.5249 -13.0814 -13.0715
   -13.0310 -13.0207  -1.6165  -1.5388  -0.8591  -0.8083  -0.7962  -0.3698
    -0.2126   0.1598   0.1650   0.4431   0.4699   0.5133   0.8545   0.9698
     1.0595   1.1192   1.1549   1.2366   1.3678   1.3702   1.4901   1.5430
     1.6537   1.9807   2.2963   2.4227   2.5432   2.7260   2.8648   2.9013

          k = 0.3333 0.2548 0.0000 (  5665 PWs)   bands (ev):

   -62.3809 -62.3663 -62.3595 -62.3570 -36.6328 -36.6251 -36.6233 -36.6221
   -36.5793 -36.5543 -36.5466 -36.5387 -36.5036 -36.4933 -36.4865 -36.4798
   -14.1753 -14.0716 -13.6514 -13.5320 -13.5193 -13.5174 -13.0900 -13.0588
   -13.0140 -12.9848  -1.6039  -1.5515  -0.9067  -0.8647  -0.8423  -0.4543
    -0.4197  -0.2719  -0.1831   0.0204   0.0879   0.2252   0.5946   0.6653
     0.7073   0.7999   0.9445   0.9896   1.0923   1.5545   1.7698   1.9662
     2.1787   2.1874   2.6048   2.7922   2.8035   2.9462   3.0041   3.0289

     highest occupied level (ev):     3.0289

!    total energy              =    -922.91775047 Ry
     Harris-Foulkes estimate   =    -922.91775047 Ry
     estimated scf accuracy    <          7.2E-11 Ry

     The total energy is the sum of the following terms:

     one-electron contribution =    -617.44528038 Ry
     hartree contribution      =     342.55272513 Ry
     xc contribution           =    -176.94848434 Ry
     ewald contribution        =    -471.07671087 Ry

     convergence has been achieved in  20 iterations

     Forces acting on atoms (cartesian axes, Ry/au):

     atom    1 type  1   force =     0.00000000    0.05917060   -0.01874491
     atom    2 type  1   force =     0.00000000   -0.05917060    0.01874491
     atom    3 type  1   force =     0.00000000   -0.05917060   -0.01874491
     atom    4 type  1   force =    -0.00000000    0.05917060    0.01874491
     atom    5 type  2   force =     0.00000000   -0.01949202   -0.01768989
     atom    6 type  2   force =     0.00000000    0.01949202    0.01768989
     atom    7 type  2   force =     0.00000000    0.01949202   -0.01768989
     atom    8 type  2   force =     0.00000000   -0.01949202    0.01768989
     atom    9 type  2   force =     0.00000000   -0.07098828    0.00844266
     atom   10 type  2   force =     0.00000000    0.07098828   -0.00844266
     atom   11 type  2   force =     0.00000000    0.07098828    0.00844266
     atom   12 type  2   force =     0.00000000    0.00530731    0.00000000
     atom   13 type  2   force =     0.00000000   -0.00530731    0.00000000
     atom   14 type  2   force =     0.00000000   -0.07098828   -0.00844266

     Total force =     0.196673     Total SCF correction =     0.000017


     Computing stress (Cartesian axis) and pressure

          total   stress  (Ry/bohr**3)                   (kbar)     P=-1147.63
  -0.00779903   0.00000000   0.00000000      -1147.28      0.00      0.00
   0.00000000  -0.00788014   0.00000000          0.00  -1159.21      0.00
   0.00000000   0.00000000  -0.00772506          0.00      0.00  -1136.40


     BFGS Geometry Optimization

     number of scf cycles    =   1
     number of bfgs steps    =   0

     enthalpy new            =    -922.9177504669 Ry

     new trust radius        =       0.5000000000 bohr
     new conv_thr            =            1.0E-10 Ry

     new unit-cell volume =   1068.30423 a.u.^3 (   158.30635 Ang^3 )
     density =      3.81562 g/cm^3

CELL_PARAMETERS (alat=  6.76758343)
   0.931901265   0.000000000   0.000000000
   0.000000000   1.218349161   0.000000000
   0.000000000   0.000000000   3.035655077

ATOMIC_POSITIONS (crystal)
V        0.000000000   0.390847574   0.647433108
V        0.500000047   0.609152519   0.852567033
V        0.500000047   0.609152519   0.147433061
V       -0.000000000   0.390847574   0.352566986
O        0.500000047   0.492843413   0.680940757
O        0.000000000   0.507156681   0.819059385
O        0.000000000   0.507156681   0.180940709
O        0.500000047   0.492843413   0.319059338
O        0.000000000   0.046114407   0.356930842
O        0.500000047   0.953885687   0.143069205
O        0.500000047   0.953885687   0.856930889
O        0.500000047   0.500802328   0.000000000
O        0.000000000   0.499197765   0.500000047
O        0.000000000   0.046114407   0.643069252



     Writing output data file v2o5.save/
     NEW-OLD atomic charge density approx. for the potential

     Check: negative core charge=   -0.000303
     extrapolated charge   85.60050, renormalised to  112.00000

     total cpu time spent up to now is       12.6 secs

     Self-consistent Calculation

     iteration #  1     ecut=    40.00 Ry     beta= 0.70
     Davidson diagonalization with overlap
     c_bands:  1 eigenvalues not converged
     c_bands:  1 eigenvalues not converged
     c_bands:  2 eigenvalues not converged
     c_bands:  2 eigenvalues not converged
     ethr =  1.00E-06,  avg # of iterations = 20.0

     total cpu time spent up to now is       15.1 secs

     total energy              =    -736.59539541 Ry
     Harris-Foulkes estimate   =   -1067.25753737 Ry
     estimated scf accuracy    <     202.84778713 Ry

     iteration #  2     ecut=    40.00 Ry     beta= 0.70
     Davidson diagonalization with overlap
     ethr =  1.00E-02,  avg # of iterations =  8.0

     total cpu time spent up to now is       16.7 secs

     total energy              =    -843.66965057 Ry
     Harris-Foulkes estimate   =   -1180.66878106 Ry
     estimated scf accuracy    <     916.05226193 Ry

     iteration #  3     ecut=    40.00 Ry     beta= 0.70
     Davidson diagonalization with overlap
     ethr =  1.00E-02,  avg # of iterations =  7.8

     total cpu time spent up to now is       17.9 secs

     total energy              =    -936.62862287 Ry
     Harris-Foulkes estimate   =    -956.62822011 Ry
     estimated scf accuracy    <      79.43947605 Ry

     iteration #  4     ecut=    40.00 Ry     beta= 0.70
     Davidson diagonalization with overlap
     ethr =  1.00E-02,  avg # of iterations =  3.5

     total cpu time spent up to now is       18.4 secs

     total energy              =    -929.73786614 Ry
     Harris-Foulkes estimate   =    -939.56070476 Ry
     estimated scf accuracy    <      39.57573445 Ry

     iteration #  5     ecut=    40.00 Ry     beta= 0.70
     Davidson diagonalization with overlap
     ethr =  1.00E-02,  avg # of iterations =  2.0

     total cpu time spent up to now is       18.8 secs

     total energy              =    -924.95805430 Ry
     Harris-Foulkes estimate   =    -930.59668953 Ry
     estimated scf accuracy    <      20.65801421 Ry

     iteration #  6     ecut=    40.00 Ry     beta= 0.70
     Davidson diagonalization with overlap
     ethr =  1.00E-02,  avg # of iterations =  3.0

     negative rho (up, down):  1.328E-03 0.000E+00

     total cpu time spent up to now is       19.2 secs

     total energy              =    -924.40716507 Ry
     Harris-Foulkes estimate   =    -925.93819749 Ry
     estimated scf accuracy    <       8.11690514 Ry

     iteration #  7     ecut=    40.00 Ry     beta= 0.70
     Davidson diagonalization with overlap
     ethr =  7.25E-03,  avg # of iterations =  2.5

     negative rho (up, down):  1.441E-03 0.000E+00

     total cpu time spent up to now is       19.6 secs

     total energy              =    -923.33827688 Ry
     Harris-Foulkes estimate   =    -924.69331891 Ry
     estimated scf accuracy    <       4.69251373 Ry

     iteration #  8     ecut=    40.00 Ry     beta= 0.70
     Davidson diagonalization with overlap
     ethr =  4.19E-03,  avg # of iterations =  3.8

     total cpu time spent up to now is       20.2 secs

     total energy              =    -924.33583293 Ry
     Harris-Foulkes estimate   =    -924.36320878 Ry
     estimated scf accuracy    <       0.33220911 Ry

     iteration #  9     ecut=    40.00 Ry     beta= 0.70
     Davidson diagonalization with overlap
     ethr =  2.97E-04,  avg # of iterations =  4.2

     total cpu time spent up to now is       21.0 secs

     total energy              =    -924.57053855 Ry
     Harris-Foulkes estimate   =    -924.58631347 Ry
     estimated scf accuracy    <       1.25610346 Ry

     iteration # 10     ecut=    40.00 Ry     beta= 0.70
     Davidson diagonalization with overlap
     ethr =  2.97E-04,  avg # of iterations =  1.0

     total cpu time spent up to now is       21.3 secs

     total energy              =    -924.01501965 Ry
     Harris-Foulkes estimate   =    -924.57319115 Ry
     estimated scf accuracy    <       1.22389284 Ry

     iteration # 11     ecut=    40.00 Ry     beta= 0.70
     Davidson diagonalization with overlap
     ethr =  2.97E-04,  avg # of iterations =  4.5

     total cpu time spent up to now is       22.1 secs

     total energy              =    -924.31178349 Ry
     Harris-Foulkes estimate   =    -924.33433749 Ry
     estimated scf accuracy    <       0.25161343 Ry

     iteration # 12     ecut=    40.00 Ry     beta= 0.70
     Davidson diagonalization with overlap
     ethr =  2.25E-04,  avg # of iterations =  1.0

     total cpu time spent up to now is       22.5 secs

     total energy              =    -924.28226619 Ry
     Harris-Foulkes estimate   =    -924.31328267 Ry
     estimated scf accuracy    <       0.18078582 Ry

     iteration # 13     ecut=    40.00 Ry     beta= 0.70
     Davidson diagonalization with overlap
     ethr =  1.61E-04,  avg # of iterations =  3.0

     total cpu time spent up to now is       22.9 secs

     total energy              =    -924.29287728 Ry
     Harris-Foulkes estimate   =    -924.29691849 Ry
     estimated scf accuracy    <       0.01464675 Ry

     iteration # 14     ecut=    40.00 Ry     beta= 0.70
     Davidson diagonalization with overlap
     ethr =  1.31E-05,  avg # of iterations =  4.2

     total cpu time spent up to now is       23.6 secs

     total energy              =    -924.29933210 Ry
     Harris-Foulkes estimate   =    -924.29931131 Ry
     estimated scf accuracy    <       0.00252276 Ry

     iteration # 15     ecut=    40.00 Ry     beta= 0.70
     Davidson diagonalization with overlap
     ethr =  2.25E-06,  avg # of iterations =  3.0

     total cpu time spent up to now is       24.0 secs

     total energy              =    -924.29890529 Ry
     Harris-Foulkes estimate   =    -924.29938652 Ry
     estimated scf accuracy    <       0.00278604 Ry

     iteration # 16     ecut=    40.00 Ry     beta= 0.70
     Davidson diagonalization with overlap
     ethr =  2.25E-06,  avg # of iterations =  2.8

     total cpu time spent up to now is       24.3 secs

     total energy              =    -924.29882931 Ry
     Harris-Foulkes estimate   =    -924.29899804 Ry
     estimated scf accuracy    <       0.00146422 Ry

     iteration # 17     ecut=    40.00 Ry     beta= 0.70
     Davidson diagonalization with overlap
     ethr =  1.31E-06,  avg # of iterations =  2.0

     total cpu time spent up to now is       24.7 secs

     total energy              =    -924.29881667 Ry
     Harris-Foulkes estimate   =    -924.29887532 Ry
     estimated scf accuracy    <       0.00084160 Ry

     iteration # 18     ecut=    40.00 Ry     beta= 0.70
     Davidson diagonalization with overlap
     ethr =  7.51E-07,  avg # of iterations =  3.0

     total cpu time spent up to now is       25.1 secs

     total energy              =    -924.29885390 Ry
     Harris-Foulkes estimate   =    -924.29886714 Ry
     estimated scf accuracy    <       0.00043672 Ry

     iteration # 19     ecut=    40.00 Ry     beta= 0.70
     Davidson diagonalization with overlap
     ethr =  3.90E-07,  avg # of iterations =  3.8

     total cpu time spent up to now is       25.5 secs

     total energy              =    -924.29887277 Ry
     Harris-Foulkes estimate   =    -924.29888192 Ry
     estimated scf accuracy    <       0.00019548 Ry

     iteration # 20     ecut=    40.00 Ry     beta= 0.70
     Davidson diagonalization with overlap
     ethr =  1.75E-07,  avg # of iterations =  4.0

     total cpu time spent up to now is       26.0 secs

     total energy              =    -924.29888082 Ry
     Harris-Foulkes estimate   =    -924.29889676 Ry
     estimated scf accuracy    <       0.00007278 Ry

     iteration # 21     ecut=    40.00 Ry     beta= 0.70
     Davidson diagonalization with overlap
     ethr =  6.50E-08,  avg # of iterations =  3.0

     total cpu time spent up to now is       26.4 secs

     total energy              =    -924.29888061 Ry
     Harris-Foulkes estimate   =    -924.29888565 Ry
     estimated scf accuracy    <       0.00002542 Ry

     iteration # 22     ecut=    40.00 Ry     beta= 0.70
     Davidson diagonalization with overlap
     ethr =  2.27E-08,  avg # of iterations =  4.0

     total cpu time spent up to now is       27.0 secs

     total energy              =    -924.29888604 Ry
     Harris-Foulkes estimate   =    -924.29888671 Ry
     estimated scf accuracy    <       0.00000402 Ry

     iteration # 23     ecut=    40.00 Ry     beta= 0.70
     Davidson diagonalization with overlap
     ethr =  3.59E-09,  avg # of iterations =  4.0

     total cpu time spent up to now is       27.5 secs

     total energy              =    -924.29888622 Ry
     Harris-Foulkes estimate   =    -924.29888657 Ry
     estimated scf accuracy    <       0.00000276 Ry

     iteration # 24     ecut=    40.00 Ry     beta= 0.70
     Davidson diagonalization with overlap
     ethr =  2.46E-09,  avg # of iterations =  3.5

     total cpu time spent up to now is       27.9 secs

     total energy              =    -924.29888607 Ry
     Harris-Foulkes estimate   =    -924.29888639 Ry
     estimated scf accuracy    <       0.00000192 Ry

     iteration # 25     ecut=    40.00 Ry     beta= 0.70
     Davidson diagonalization with overlap
     ethr =  1.71E-09,  avg # of iterations =  3.0

     total cpu time spent up to now is       28.3 secs

     total energy              =    -924.29888601 Ry
     Harris-Foulkes estimate   =    -924.29888615 Ry
     estimated scf accuracy    <       0.00000082 Ry

     iteration # 26     ecut=    40.00 Ry     beta= 0.70
     Davidson diagonalization with overlap
     ethr =  7.35E-10,  avg # of iterations =  3.8

     total cpu time spent up to now is       28.8 secs

     total energy              =    -924.29888610 Ry
     Harris-Foulkes estimate   =    -924.29888612 Ry
     estimated scf accuracy    <       0.00000008 Ry

     iteration # 27     ecut=    40.00 Ry     beta= 0.70
     Davidson diagonalization with overlap
     ethr =  6.90E-11,  avg # of iterations =  4.5

     total cpu time spent up to now is       29.4 secs

     total energy              =    -924.29888613 Ry
     Harris-Foulkes estimate   =    -924.29888613 Ry
     estimated scf accuracy    <          9.1E-09 Ry

     iteration # 28     ecut=    40.00 Ry     beta= 0.70
     Davidson diagonalization with overlap
     ethr =  8.14E-12,  avg # of iterations =  4.2

     total cpu time spent up to now is       30.0 secs

     total energy              =    -924.29888613 Ry
     Harris-Foulkes estimate   =    -924.29888613 Ry
     estimated scf accuracy    <          6.7E-09 Ry

     iteration # 29     ecut=    40.00 Ry     beta= 0.70
     Davidson diagonalization with overlap
     ethr =  5.99E-12,  avg # of iterations =  3.0

     total cpu time spent up to now is       30.4 secs

     total energy              =    -924.29888613 Ry
     Harris-Foulkes estimate   =    -924.29888613 Ry
     estimated scf accuracy    <          1.7E-09 Ry

     iteration # 30     ecut=    40.00 Ry     beta= 0.70
     Davidson diagonalization with overlap
     ethr =  1.55E-12,  avg # of iterations =  4.0

     total cpu time spent up to now is       31.1 secs

     total energy              =    -924.29888613 Ry
     Harris-Foulkes estimate   =    -924.29888613 Ry
     estimated scf accuracy    <          8.1E-10 Ry

     iteration # 31     ecut=    40.00 Ry     beta= 0.70
     Davidson diagonalization with overlap
     ethr =  7.22E-13,  avg # of iterations =  1.0

     total cpu time spent up to now is       31.4 secs

     total energy              =    -924.29888613 Ry
     Harris-Foulkes estimate   =    -924.29888613 Ry
     estimated scf accuracy    <          3.9E-10 Ry

     iteration # 32     ecut=    40.00 Ry     beta= 0.70
     Davidson diagonalization with overlap
     ethr =  3.44E-13,  avg # of iterations =  3.8

     total cpu time spent up to now is       32.0 secs

     End of self-consistent calculation

          k = 0.0000 0.0000 0.0000 (  5641 PWs)   bands (ev):

   -58.5908 -58.5773 -58.5710 -58.5645 -33.0069 -33.0007 -32.9908 -32.9806
   -32.8536 -32.7431 -32.6902 -32.6313 -32.6244 -32.5886 -32.5652 -32.5568
   -12.8475 -12.6812 -11.5076 -11.4880 -11.3298 -11.1261 -10.4420 -10.4020
   -10.2094 -10.1829   0.4444   0.4881   0.5268   0.5628   0.9784   1.4816
     1.9627   2.1399   2.3245   2.4353   2.8380   2.9043   3.2478   3.2996
     3.3426   3.3846   3.4794   3.5994   3.6902   3.8204   3.8770   3.9198
     4.1274   4.3364   4.5259   4.7279   4.7534   4.7908   4.8118   5.0588

          k = 0.0000 0.2736 0.0000 (  5638 PWs)   bands (ev):

   -58.5886 -58.5824 -58.5744 -58.5570 -33.0103 -33.0031 -32.9972 -32.9847
   -32.8500 -32.7434 -32.6900 -32.6298 -32.6236 -32.5871 -32.5625 -32.5582
   -12.7873 -12.6315 -11.4871 -11.4713 -11.2958 -11.1095 -10.4244 -10.3613
   -10.1670 -10.0968   0.4141   0.4350   0.4875   0.5350   0.6504   0.9456
     1.4658   1.5415   1.6047   1.7126   2.5681   2.6468   2.6498   3.2111
     3.2866   3.2987   3.3403   3.8956   4.0820   4.1214   4.2268   4.4648
     4.5125   4.6334   4.6743   4.7697   4.7698   4.9870   5.1415   5.2592

          k = 0.3577 0.0000 0.0000 (  5626 PWs)   bands (ev):

   -58.5694 -58.5691 -58.5687 -58.5654 -32.9951 -32.9910 -32.9848 -32.9767
   -32.8445 -32.7880 -32.7618 -32.7422 -32.6505 -32.6388 -32.6072 -32.5840
   -12.0887 -11.8850 -11.3762 -11.1749 -11.0711 -11.0247 -10.3357 -10.2993
   -10.2302 -10.2158  -0.1353   0.0408   0.6663   0.8327   1.0778   1.4753
     1.4832   1.6718   1.9747   2.1384   2.2433   2.2660   2.7268   2.9848
     3.0888   3.2871   3.3446   3.3893   3.7644   3.7889   3.8333   3.8952
     4.0186   4.2228   4.4513   4.6932   4.8439   4.9413   5.0598   5.1948

          k = 0.3577 0.2736 0.0000 (  5665 PWs)   bands (ev):

   -58.5858 -58.5757 -58.5735 -58.5626 -32.9991 -32.9921 -32.9909 -32.9812
   -32.8442 -32.7878 -32.7613 -32.7423 -32.6519 -32.6401 -32.6082 -32.5862
   -12.0381 -11.8487 -11.3578 -11.1726 -11.0472 -11.0158 -10.3029 -10.2403
   -10.1731 -10.1117  -0.1219   0.0353   0.5951   0.7425   0.8525   1.0164
     1.3140   1.3728   1.5478   1.6950   1.8384   2.1373   2.3926   2.7678
     2.8033   2.9168   3.0632   3.1408   3.2689   3.7211   3.8629   4.3187
     4.5437   4.6264   4.9154   5.0855   5.1065   5.2677   5.3275   5.3742

     highest occupied level (ev):     5.3742

!    total energy              =    -924.29888613 Ry
     Harris-Foulkes estimate   =    -924.29888613 Ry
     estimated scf accuracy    <          6.2E-11 Ry

     The total energy is the sum of the following terms:

     one-electron contribution =    -567.22480631 Ry
     hartree contribution      =     329.96287494 Ry
     xc contribution           =    -179.54655392 Ry
     ewald contribution        =    -507.49040084 Ry

     convergence has been achieved in  32 iterations

     Forces acting on atoms (cartesian axes, Ry/au):

     atom    1 type  1   force =     0.00000000    0.13775672    0.04285039
     atom    2 type  1   force =     0.00000000   -0.13775672   -0.04285039
     atom    3 type  1   force =     0.00000000   -0.13775672    0.04285039
     atom    4 type  1   force =    -0.00000000    0.13775672   -0.04285039
     atom    5 type  2   force =    -0.00000000    0.02788562   -0.03329479
     atom    6 type  2   force =     0.00000000   -0.02788562    0.03329479
     atom    7 type  2   force =     0.00000000   -0.02788562   -0.03329479
     atom    8 type  2   force =    -0.00000000    0.02788562    0.03329479
     atom    9 type  2   force =     0.00000000   -0.26695144    0.01332990
     atom   10 type  2   force =     0.00000000    0.26695144   -0.01332990
     atom   11 type  2   force =     0.00000000    0.26695144    0.01332990
     atom   12 type  2   force =    -0.00000000   -0.08412850    0.00000000
     atom   13 type  2   force =     0.00000000    0.08412850    0.00000000
     atom   14 type  2   force =     0.00000000   -0.26695144   -0.01332990

     Total force =     0.625072     Total SCF correction =     0.000012


     Computing stress (Cartesian axis) and pressure

          total   stress  (Ry/bohr**3)                   (kbar)     P= -337.61
  -0.00236813   0.00000000   0.00000000       -348.36      0.00      0.00
   0.00000000  -0.00237844   0.00000000          0.00   -349.88      0.00
   0.00000000   0.00000000  -0.00213852          0.00      0.00   -314.59


     number of scf cycles    =   2
     number of bfgs steps    =   1

     enthalpy old            =    -922.9177504669 Ry
     enthalpy new            =    -924.2988861332 Ry

     CASE: enthalpy_new < enthalpy_old

     new trust radius        =       0.3074943950 bohr
     new conv_thr            =            1.0E-10 Ry

     new unit-cell volume =    940.12598 a.u.^3 (   139.31230 Ang^3 )
     density =      4.33585 g/cm^3

CELL_PARAMETERS (alat=  6.76758343)
   0.890860120   0.000000000   0.000000000
   0.000000000   1.164580362   0.000000000
   0.000000000   0.000000000   2.923521009

ATOMIC_POSITIONS (crystal)
V        0.000000000   0.409686689   0.650046254
V        0.500000072   0.590313454   0.849953962
V        0.500000072   0.590313454   0.150046182
V       -0.000000000   0.409686689   0.349953890
O        0.500000072   0.497192653   0.679131076
O        0.000000000   0.502807492   0.820869141
O        0.000000000   0.502807492   0.179131003
O        0.500000072   0.497192653   0.320869069
O        0.000000000   0.008863680   0.357646090
O        0.500000072   0.991136465   0.142353982
O        0.500000072   0.991136465   0.857646163
O        0.500000072   0.488591804   0.000000000
O        0.000000000   0.511408339   0.500000072
O        0.000000000   0.008863680   0.642354054



     Writing output data file v2o5.save/
     NEW-OLD atomic charge density approx. for the potential

     Check: negative core charge=   -0.000189
     extrapolated charge   96.73032, renormalised to  112.00000

     total cpu time spent up to now is       32.9 secs

     Self-consistent Calculation

     iteration #  1     ecut=    40.00 Ry     beta= 0.70
     Davidson diagonalization with overlap
     c_bands:  1 eigenvalues not converged
     c_bands:  1 eigenvalues not converged
     c_bands:  2 eigenvalues not converged
     ethr =  1.00E-06,  avg # of iterations = 20.0

     total cpu time spent up to now is       35.9 secs

     total energy              =    -793.10773504 Ry
     Harris-Foulkes estimate   =    -997.17047813 Ry
     estimated scf accuracy    <     140.16327801 Ry

     iteration #  2     ecut=    40.00 Ry     beta= 0.70
     Davidson diagonalization with overlap
     ethr =  1.00E-02,  avg # of iterations =  7.8

     total cpu time spent up to now is       37.4 secs

     total energy              =    -850.25782692 Ry
     Harris-Foulkes estimate   =   -1119.88662145 Ry
     estimated scf accuracy    <     787.32044147 Ry

     iteration #  3     ecut=    40.00 Ry     beta= 0.70
     Davidson diagonalization with overlap
     ethr =  1.00E-02,  avg # of iterations =  7.2

     total cpu time spent up to now is       38.5 secs

     total energy              =    -934.13041875 Ry
     Harris-Foulkes estimate   =    -948.92249620 Ry
     estimated scf accuracy    <      65.37233333 Ry

     iteration #  4     ecut=    40.00 Ry     beta= 0.70
     Davidson diagonalization with overlap
     ethr =  1.00E-02,  avg # of iterations =  3.8

     total cpu time spent up to now is       39.0 secs

     total energy              =    -930.31851153 Ry
     Harris-Foulkes estimate   =    -936.86005220 Ry
     estimated scf accuracy    <      33.65458021 Ry

     iteration #  5     ecut=    40.00 Ry     beta= 0.70
     Davidson diagonalization with overlap
     ethr =  1.00E-02,  avg # of iterations =  1.5

     total cpu time spent up to now is       39.3 secs

     total energy              =    -925.51874849 Ry
     Harris-Foulkes estimate   =    -930.79148888 Ry
     estimated scf accuracy    <      21.09241171 Ry

     iteration #  6     ecut=    40.00 Ry     beta= 0.70
     Davidson diagonalization with overlap
     ethr =  1.00E-02,  avg # of iterations =  2.8

     total cpu time spent up to now is       39.7 secs

     total energy              =    -924.99175391 Ry
     Harris-Foulkes estimate   =    -926.34873059 Ry
     estimated scf accuracy    <       9.14596476 Ry

     iteration #  7     ecut=    40.00 Ry     beta= 0.70
     Davidson diagonalization with overlap
     ethr =  8.17E-03,  avg # of iterations =  1.0

     negative rho (up, down):  1.105E-03 0.000E+00

     total cpu time spent up to now is       39.9 secs

     total energy              =    -922.65085856 Ry
     Harris-Foulkes estimate   =    -925.18888633 Ry
     estimated scf accuracy    <       6.54284434 Ry

     iteration #  8     ecut=    40.00 Ry     beta= 0.70
     Davidson diagonalization with overlap
     ethr =  5.84E-03,  avg # of iterations =  5.2

     negative rho (up, down):  1.064E-05 0.000E+00

     total cpu time spent up to now is       40.4 secs

     total energy              =    -924.42699695 Ry
     Harris-Foulkes estimate   =    -924.86695757 Ry
     estimated scf accuracy    <       4.15657615 Ry

     iteration #  9     ecut=    40.00 Ry     beta= 0.70
     Davidson diagonalization with overlap
     ethr =  3.71E-03,  avg # of iterations =  1.2

     total cpu time spent up to now is       40.6 secs

     total energy              =    -924.23385649 Ry
     Harris-Foulkes estimate   =    -924.47609265 Ry
     estimated scf accuracy    <       2.63915420 Ry

     iteration # 10     ecut=    40.00 Ry     beta= 0.70
     Davidson diagonalization with overlap
     ethr =  2.36E-03,  avg # of iterations =  4.2

     negative rho (up, down):  8.317E-04 0.000E+00

     total cpu time spent up to now is       40.9 secs

     total energy              =    -924.90836365 Ry
     Harris-Foulkes estimate   =    -924.40106409 Ry
     estimated scf accuracy    <       0.55301944 Ry

     iteration # 11     ecut=    40.00 Ry     beta= 0.70
     Davidson diagonalization with overlap
     ethr =  4.94E-04,  avg # of iterations =  6.2

     total cpu time spent up to now is       41.6 secs

     total energy              =    -922.92361033 Ry
     Harris-Foulkes estimate   =    -925.83455818 Ry
     estimated scf accuracy    <      18.77242211 Ry

     iteration # 12     ecut=    40.00 Ry     beta= 0.70
     Davidson diagonalization with overlap
     ethr =  4.94E-04,  avg # of iterations =  5.0

     total cpu time spent up to now is       42.2 secs

     total energy              =    -924.44567555 Ry
     Harris-Foulkes estimate   =    -924.46238797 Ry
     estimated scf accuracy    <       0.05257486 Ry

     iteration # 13     ecut=    40.00 Ry     beta= 0.70
     Davidson diagonalization with overlap
     ethr =  4.69E-05,  avg # of iterations =  4.8

     total cpu time spent up to now is       42.7 secs

     total energy              =    -924.41903796 Ry
     Harris-Foulkes estimate   =    -924.46805019 Ry
     estimated scf accuracy    <       0.14810177 Ry

     iteration # 14     ecut=    40.00 Ry     beta= 0.70
     Davidson diagonalization with overlap
     ethr =  4.69E-05,  avg # of iterations =  5.5

     total cpu time spent up to now is       43.2 secs

     total energy              =    -924.48926194 Ry
     Harris-Foulkes estimate   =    -924.46070875 Ry
     estimated scf accuracy    <       0.07714595 Ry

     iteration # 15     ecut=    40.00 Ry     beta= 0.70
     Davidson diagonalization with overlap
     ethr =  4.69E-05,  avg # of iterations =  4.2

     total cpu time spent up to now is       43.6 secs

     total energy              =    -924.49371625 Ry
     Harris-Foulkes estimate   =    -924.50938215 Ry
     estimated scf accuracy    <       0.42024498 Ry

     iteration # 16     ecut=    40.00 Ry     beta= 0.70
     Davidson diagonalization with overlap
     ethr =  4.69E-05,  avg # of iterations =  1.0

     total cpu time spent up to now is       43.8 secs

     total energy              =    -924.48358585 Ry
     Harris-Foulkes estimate   =    -924.49417638 Ry
     estimated scf accuracy    <       0.37530210 Ry

     iteration # 17     ecut=    40.00 Ry     beta= 0.70
     Davidson diagonalization with overlap
     ethr =  4.69E-05,  avg # of iterations =  1.0

     total cpu time spent up to now is       44.0 secs

     total energy              =    -924.44367796 Ry
     Harris-Foulkes estimate   =    -924.48414517 Ry
     estimated scf accuracy    <       0.33334252 Ry

     iteration # 18     ecut=    40.00 Ry     beta= 0.70
     Davidson diagonalization with overlap
     ethr =  4.69E-05,  avg # of iterations =  4.2

     total cpu time spent up to now is       44.4 secs

     total energy              =    -924.46232715 Ry
     Harris-Foulkes estimate   =    -924.45787188 Ry
     estimated scf accuracy    <       0.06253676 Ry

     iteration # 19     ecut=    40.00 Ry     beta= 0.70
     Davidson diagonalization with overlap
     ethr =  4.69E-05,  avg # of iterations =  1.0

     total cpu time spent up to now is       44.6 secs

     total energy              =    -924.44783808 Ry
     Harris-Foulkes estimate   =    -924.46267776 Ry
     estimated scf accuracy    <       0.07388001 Ry

     iteration # 20     ecut=    40.00 Ry     beta= 0.70
     Davidson diagonalization with overlap
     ethr =  4.69E-05,  avg # of iterations =  1.8

     total cpu time spent up to now is       44.9 secs

     total energy              =    -924.44358709 Ry
     Harris-Foulkes estimate   =    -924.44947951 Ry
     estimated scf accuracy    <       0.03944679 Ry

     iteration # 21     ecut=    40.00 Ry     beta= 0.70
     Davidson diagonalization with overlap
     ethr =  3.52E-05,  avg # of iterations =  4.0

     total cpu time spent up to now is       45.2 secs

     total energy              =    -924.44983817 Ry
     Harris-Foulkes estimate   =    -924.45021684 Ry
     estimated scf accuracy    <       0.00366446 Ry

     iteration # 22     ecut=    40.00 Ry     beta= 0.70
     Davidson diagonalization with overlap
     ethr =  3.27E-06,  avg # of iterations =  5.2

     total cpu time spent up to now is       45.6 secs

     total energy              =    -924.44989106 Ry
     Harris-Foulkes estimate   =    -924.45033735 Ry
     estimated scf accuracy    <       0.00297287 Ry

     iteration # 23     ecut=    40.00 Ry     beta= 0.70
     Davidson diagonalization with overlap
     ethr =  2.65E-06,  avg # of iterations =  3.5

     total cpu time spent up to now is       45.9 secs

     total energy              =    -924.44928522 Ry
     Harris-Foulkes estimate   =    -924.45008532 Ry
     estimated scf accuracy    <       0.00205730 Ry

     iteration # 24     ecut=    40.00 Ry     beta= 0.70
     Davidson diagonalization with overlap
     ethr =  1.84E-06,  avg # of iterations =  5.2

     total cpu time spent up to now is       46.5 secs

     total energy              =    -924.44966883 Ry
     Harris-Foulkes estimate   =    -924.45005557 Ry
     estimated scf accuracy    <       0.00127583 Ry

     iteration # 25     ecut=    40.00 Ry     beta= 0.70
     Davidson diagonalization with overlap
     ethr =  1.14E-06,  avg # of iterations =  4.0

     total cpu time spent up to now is       46.8 secs

     total energy              =    -924.44983627 Ry
     Harris-Foulkes estimate   =    -924.44984842 Ry
     estimated scf accuracy    <       0.00003501 Ry

     iteration # 26     ecut=    40.00 Ry     beta= 0.70
     Davidson diagonalization with overlap
     ethr =  3.13E-08,  avg # of iterations =  5.0

     total cpu time spent up to now is       47.4 secs

     total energy              =    -924.44985749 Ry
     Harris-Foulkes estimate   =    -924.44986391 Ry
     estimated scf accuracy    <       0.00002158 Ry

     iteration # 27     ecut=    40.00 Ry     beta= 0.70
     Davidson diagonalization with overlap
     ethr =  1.93E-08,  avg # of iterations =  4.0

     total cpu time spent up to now is       47.7 secs

     total energy              =    -924.44985880 Ry
     Harris-Foulkes estimate   =    -924.44985968 Ry
     estimated scf accuracy    <       0.00000427 Ry

     iteration # 28     ecut=    40.00 Ry     beta= 0.70
     Davidson diagonalization with overlap
     ethr =  3.81E-09,  avg # of iterations =  4.0

     total cpu time spent up to now is       48.0 secs

     total energy              =    -924.44985949 Ry
     Harris-Foulkes estimate   =    -924.44985957 Ry
     estimated scf accuracy    <       0.00000049 Ry

     iteration # 29     ecut=    40.00 Ry     beta= 0.70
     Davidson diagonalization with overlap
     ethr =  4.41E-10,  avg # of iterations =  4.2

     total cpu time spent up to now is       48.4 secs

     total energy              =    -924.44985947 Ry
     Harris-Foulkes estimate   =    -924.44985955 Ry
     estimated scf accuracy    <       0.00000031 Ry

     iteration # 30     ecut=    40.00 Ry     beta= 0.70
     Davidson diagonalization with overlap
     ethr =  2.78E-10,  avg # of iterations =  3.5

     total cpu time spent up to now is       48.7 secs

     total energy              =    -924.44985950 Ry
     Harris-Foulkes estimate   =    -924.44985951 Ry
     estimated scf accuracy    <       0.00000006 Ry

     iteration # 31     ecut=    40.00 Ry     beta= 0.70
     Davidson diagonalization with overlap
     ethr =  5.01E-11,  avg # of iterations =  4.2

     total cpu time spent up to now is       49.1 secs

     total energy              =    -924.44985951 Ry
     Harris-Foulkes estimate   =    -924.44985952 Ry
     estimated scf accuracy    <          7.3E-09 Ry

     iteration # 32     ecut=    40.00 Ry     beta= 0.70
     Davidson diagonalization with overlap
     ethr =  6.55E-12,  avg # of iterations =  4.0

     total cpu time spent up to now is       49.4 secs

     total energy              =    -924.44985951 Ry
     Harris-Foulkes estimate   =    -924.44985951 Ry
     estimated scf accuracy    <          3.7E-10 Ry

     iteration # 33     ecut=    40.00 Ry     beta= 0.70
     Davidson diagonalization with overlap
     ethr =  3.28E-13,  avg # of iterations =  5.0

     total cpu time spent up to now is       49.9 secs

     total energy              =    -924.44985951 Ry
     Harris-Foulkes estimate   =    -924.44985951 Ry
     estimated scf accuracy    <          1.0E-09 Ry

     iteration # 34     ecut=    40.00 Ry     beta= 0.70
     Davidson diagonalization with overlap
     ethr =  3.28E-13,  avg # of iterations =  4.0

     total cpu time spent up to now is       50.3 secs

     total energy              =    -924.44985951 Ry
     Harris-Foulkes estimate   =    -924.44985951 Ry
     estimated scf accuracy    <          1.5E-10 Ry

     iteration # 35     ecut=    40.00 Ry     beta= 0.70
     Davidson diagonalization with overlap
     ethr =  1.38E-13,  avg # of iterations =  3.8

     total cpu time spent up to now is       50.6 secs

     End of self-consistent calculation

          k = 0.0000 0.0000 0.0000 (  5641 PWs)   bands (ev):

   -56.8335 -56.8198 -56.7618 -56.7555 -31.3244 -31.1919 -31.1267 -31.1186
   -31.0038 -30.9726 -30.9636 -30.8623 -30.6209 -30.6078 -30.5952 -30.5855
   -12.2020 -12.0166 -11.0912 -11.0663  -9.8557  -9.6319  -8.2233  -8.1559
    -7.8470  -7.7790   0.8777   0.9800   1.3575   1.4287   2.0394   2.6881
     2.9925   3.1534   3.7982   4.0255   4.4118   4.4771   4.5634   4.6178
     4.9533   5.1489   5.2154   5.3391   6.0038   6.2724   6.4191   6.4486
     6.4581   6.5666   6.8260   6.8721   7.0958   7.5089   7.5857   7.7139

          k = 0.0000 0.2862 0.0000 (  5638 PWs)   bands (ev):

   -56.8307 -56.8205 -56.7652 -56.7524 -31.3234 -31.1923 -31.1257 -31.1179
   -31.0038 -30.9712 -30.9639 -30.8629 -30.6271 -30.6126 -30.6040 -30.5930
   -12.1491 -11.9727 -11.0802 -11.0529  -9.8107  -9.6104  -8.1388  -8.0327
    -7.7165  -7.5977   0.8712   0.9673   1.3304   1.4049   1.7575   2.0986
     2.8236   2.9957   3.0847   3.3135   4.2107   4.2978   4.3271   4.5723
     4.5967   4.9068   5.0633   5.3411   5.5531   5.7542   5.9130   6.2790
     6.9300   7.0043   7.0760   7.0851   7.3124   7.3990   7.7139   7.8350

          k = 0.3742 0.0000 0.0000 (  5626 PWs)   bands (ev):

   -56.8020 -56.7939 -56.7669 -56.7646 -31.3827 -31.3481 -31.3212 -31.3204
   -31.0393 -30.9864 -30.9548 -30.8650 -30.6062 -30.5975 -30.5956 -30.5887
   -11.1229 -10.8880 -10.4017 -10.2628  -9.6242  -9.4845  -8.0421  -7.9745
    -7.8562  -7.7992   0.2037   0.3824   1.1206   1.2916   1.9535   2.1670
     2.2388   2.2971   2.8575   3.3565   3.4492   4.0221   4.3282   4.3662
     4.5011   5.0455   5.2577   5.7704   6.1241   6.1372   6.1572   6.2141
     6.5723   6.6643   6.6693   6.7119   7.0588   7.2418   7.3519   7.6301

          k = 0.3742 0.2862 0.0000 (  5665 PWs)   bands (ev):

   -56.8094 -56.7957 -56.7731 -56.7646 -31.3826 -31.3483 -31.3212 -31.3199
   -31.0397 -30.9873 -30.9553 -30.8658 -30.6119 -30.6035 -30.6025 -30.5955
   -11.0793 -10.8566 -10.3957 -10.2582  -9.5853  -9.4698  -7.9265  -7.8238
    -7.7105  -7.6047   0.2055   0.3775   1.1120   1.2495   1.8084   1.9320
     2.0189   2.0715   2.5053   3.1312   3.4270   3.4386   3.7096   4.0657
     4.1063   4.7588   4.8615   5.0678   5.4835   5.5374   5.8209   6.2395
     6.8166   7.0082   7.0887   7.1029   7.3425   7.4886   7.6673   7.7937

     highest occupied level (ev):     7.8350

!    total energy              =    -924.44985951 Ry
     Harris-Foulkes estimate   =    -924.44985951 Ry
     estimated scf accuracy    <          4.5E-11 Ry

     The total energy is the sum of the following terms:

     one-electron contribution =    -503.84599049 Ry
     hartree contribution      =     305.52202444 Ry
     xc contribution           =    -180.15709501 Ry
     ewald contribution        =    -545.96879845 Ry

     convergence has been achieved in  35 iterations

     Forces acting on atoms (cartesian axes, Ry/au):

     atom    1 type  1   force =    -0.00000000   -0.29827946   -0.06634566
     atom    2 type  1   force =     0.00000000    0.29827946    0.06634566
     atom    3 type  1   force =     0.00000000    0.29827946   -0.06634566
     atom    4 type  1   force =     0.00000000   -0.29827946    0.06634566
     atom    5 type  2   force =     0.00000000    0.07112773   -0.04504709
     atom    6 type  2   force =     0.00000000   -0.07112773    0.04504709
     atom    7 type  2   force =    -0.00000000   -0.07112773   -0.04504709
     atom    8 type  2   force =    -0.00000000    0.07112773    0.04504709
     atom    9 type  2   force =     0.00000000    0.09737473    0.00269159
     atom   10 type  2   force =    -0.00000000   -0.09737473   -0.00269159
     atom   11 type  2   force =     0.00000000   -0.09737473    0.00269159
     atom   12 type  2   force =    -0.00000000   -0.10123581    0.00000000
     atom   13 type  2   force =     0.00000000    0.10123581    0.00000000
     atom   14 type  2   force =     0.00000000    0.09737473   -0.00269159

     Total force =     0.678452     Total SCF correction =     0.000016


     Computing stress (Cartesian axis) and pressure

          total   stress  (Ry/bohr**3)                   (kbar)     P=  101.59
   0.00365183   0.00000000   0.00000000        537.20      0.00      0.00
   0.00000000  -0.00388005   0.00000000          0.00   -570.77      0.00
   0.00000000   0.00000000   0.00230004          0.00      0.00    338.35


     number of scf cycles    =   3
     number of bfgs steps    =   2

     enthalpy old            =    -924.2988861332 Ry
     enthalpy new            =    -924.4498595141 Ry

     CASE: enthalpy_new < enthalpy_old

     new trust radius        =       0.5328691455 bohr
     new conv_thr            =            1.0E-10 Ry

     new unit-cell volume =    894.84597 a.u.^3 (   132.60249 Ang^3 )
     density =      4.55525 g/cm^3

CELL_PARAMETERS (alat=  6.76758343)
   0.917301773   0.000000000   0.000000000
   0.000000000   1.063383507   0.000000000
   0.000000000   0.000000000   2.959683558

ATOMIC_POSITIONS (crystal)
V       -0.000000000   0.399138885   0.649567186
V        0.500000083   0.600861280   0.850433063
V        0.500000083   0.600861280   0.149567103
V       -0.000000000   0.399138885   0.350432980
O        0.500000083   0.504413972   0.676893446
O        0.000000000   0.495586194   0.823106804
O        0.000000000   0.495586194   0.176893362
O        0.500000083   0.504413972   0.323106721
O        0.000000000  -0.004326904   0.358106727
O        0.500000083   1.004327070   0.141893356
O        0.500000083   1.004327070   0.858106810
O        0.500000083   0.475079706   0.000000000
O        0.000000000   0.524920459   0.500000083
O        0.000000000  -0.004326904   0.641893439



     Writing output data file v2o5.save/
     NEW-OLD atomic charge density approx. for the potential

     Check: negative core charge=   -0.000180
     extrapolated charge  106.33291, renormalised to  112.00000

     total cpu time spent up to now is       51.2 secs

     Self-consistent Calculation

     iteration #  1     ecut=    40.00 Ry     beta= 0.70
     Davidson diagonalization with overlap
     c_bands:  1 eigenvalues not converged
     c_bands:  1 eigenvalues not converged
     ethr =  1.00E-06,  avg # of iterations = 18.5

     total cpu time spent up to now is       52.9 secs

     total energy              =    -907.63796764 Ry
     Harris-Foulkes estimate   =    -945.27928478 Ry
     estimated scf accuracy    <      17.66355956 Ry

     iteration #  2     ecut=    40.00 Ry     beta= 0.70
     Davidson diagonalization with overlap
     ethr =  1.00E-02,  avg # of iterations =  4.5

     total cpu time spent up to now is       53.5 secs

     total energy              =    -923.21682595 Ry
     Harris-Foulkes estimate   =    -948.32004196 Ry
     estimated scf accuracy    <      63.84242058 Ry

     iteration #  3     ecut=    40.00 Ry     beta= 0.70
     Davidson diagonalization with overlap
     ethr =  1.00E-02,  avg # of iterations =  3.0

     total cpu time spent up to now is       53.8 secs

     total energy              =    -924.75582000 Ry
     Harris-Foulkes estimate   =    -927.59837791 Ry
     estimated scf accuracy    <      15.37788707 Ry

     iteration #  4     ecut=    40.00 Ry     beta= 0.70
     Davidson diagonalization with overlap
     ethr =  1.00E-02,  avg # of iterations =  1.0

     total cpu time spent up to now is       54.1 secs

     total energy              =    -922.69483727 Ry
     Harris-Foulkes estimate   =    -925.07122496 Ry
     estimated scf accuracy    <      10.19324176 Ry

     iteration #  5     ecut=    40.00 Ry     beta= 0.70
     Davidson diagonalization with overlap
     ethr =  9.10E-03,  avg # of iterations =  4.2

     total cpu time spent up to now is       54.4 secs

     total energy              =    -924.03196570 Ry
     Harris-Foulkes estimate   =    -924.26261622 Ry
     estimated scf accuracy    <       2.19786592 Ry

     iteration #  6     ecut=    40.00 Ry     beta= 0.70
     Davidson diagonalization with overlap
     ethr =  1.96E-03,  avg # of iterations =  4.8

     total cpu time spent up to now is       54.8 secs

     total energy              =    -924.87584230 Ry
     Harris-Foulkes estimate   =    -924.74412125 Ry
     estimated scf accuracy    <       0.37909490 Ry

     iteration #  7     ecut=    40.00 Ry     beta= 0.70
     Davidson diagonalization with overlap
     ethr =  3.38E-04,  avg # of iterations =  4.0

     total cpu time spent up to now is       55.1 secs

     total energy              =    -924.84659633 Ry
     Harris-Foulkes estimate   =    -924.93080004 Ry
     estimated scf accuracy    <       1.07174388 Ry

     iteration #  8     ecut=    40.00 Ry     beta= 0.70
     Davidson diagonalization with overlap
     ethr =  3.38E-04,  avg # of iterations =  1.0

     negative rho (up, down):  5.429E-04 0.000E+00

     total cpu time spent up to now is       55.3 secs

     total energy              =    -924.59411952 Ry
     Harris-Foulkes estimate   =    -924.85023858 Ry
     estimated scf accuracy    <       0.90507441 Ry

     iteration #  9     ecut=    40.00 Ry     beta= 0.70
     Davidson diagonalization with overlap
     ethr =  3.38E-04,  avg # of iterations =  4.0

     negative rho (up, down):  2.202E-04 0.000E+00

     total cpu time spent up to now is       55.8 secs

     total energy              =    -924.70678754 Ry
     Harris-Foulkes estimate   =    -924.70577612 Ry
     estimated scf accuracy    <       0.01632284 Ry

     iteration # 10     ecut=    40.00 Ry     beta= 0.70
     Davidson diagonalization with overlap
     ethr =  1.46E-05,  avg # of iterations =  2.0

     negative rho (up, down):  3.581E-04 0.000E+00

     total cpu time spent up to now is       56.0 secs

     total energy              =    -924.70801389 Ry
     Harris-Foulkes estimate   =    -924.70776204 Ry
     estimated scf accuracy    <       0.01923883 Ry

     iteration # 11     ecut=    40.00 Ry     beta= 0.70
     Davidson diagonalization with overlap
     ethr =  1.46E-05,  avg # of iterations =  4.0

     negative rho (up, down):  6.621E-05 0.000E+00

     total cpu time spent up to now is       56.4 secs

     total energy              =    -924.69922765 Ry
     Harris-Foulkes estimate   =    -924.71109577 Ry
     estimated scf accuracy    <       0.05273476 Ry

     iteration # 12     ecut=    40.00 Ry     beta= 0.70
     Davidson diagonalization with overlap
     ethr =  1.46E-05,  avg # of iterations =  4.0

     total cpu time spent up to now is       56.8 secs

     total energy              =    -924.70134791 Ry
     Harris-Foulkes estimate   =    -924.70279839 Ry
     estimated scf accuracy    <       0.00811981 Ry

     iteration # 13     ecut=    40.00 Ry     beta= 0.70
     Davidson diagonalization with overlap
     ethr =  7.25E-06,  avg # of iterations =  3.0

     total cpu time spent up to now is       57.0 secs

     total energy              =    -924.69999891 Ry
     Harris-Foulkes estimate   =    -924.70179903 Ry
     estimated scf accuracy    <       0.00580596 Ry

     iteration # 14     ecut=    40.00 Ry     beta= 0.70
     Davidson diagonalization with overlap
     ethr =  5.18E-06,  avg # of iterations =  4.0

     total cpu time spent up to now is       57.4 secs

     total energy              =    -924.69958950 Ry
     Harris-Foulkes estimate   =    -924.70090391 Ry
     estimated scf accuracy    <       0.00299185 Ry

     iteration # 15     ecut=    40.00 Ry     beta= 0.70
     Davidson diagonalization with overlap
     ethr =  2.67E-06,  avg # of iterations =  5.0

     total cpu time spent up to now is       57.8 secs

     total energy              =    -924.70121380 Ry
     Harris-Foulkes estimate   =    -924.70066811 Ry
     estimated scf accuracy    <       0.00171343 Ry

     iteration # 16     ecut=    40.00 Ry     beta= 0.70
     Davidson diagonalization with overlap
     ethr =  1.53E-06,  avg # of iterations =  4.0

     total cpu time spent up to now is       58.2 secs

     total energy              =    -924.70007846 Ry
     Harris-Foulkes estimate   =    -924.70167388 Ry
     estimated scf accuracy    <       0.00868324 Ry

     iteration # 17     ecut=    40.00 Ry     beta= 0.70
     Davidson diagonalization with overlap
     ethr =  1.53E-06,  avg # of iterations =  4.0

     total cpu time spent up to now is       58.6 secs

     total energy              =    -924.70023226 Ry
     Harris-Foulkes estimate   =    -924.70053170 Ry
     estimated scf accuracy    <       0.00117617 Ry

     iteration # 18     ecut=    40.00 Ry     beta= 0.70
     Davidson diagonalization with overlap
     ethr =  1.05E-06,  avg # of iterations =  4.0

     total cpu time spent up to now is       58.9 secs

     total energy              =    -924.70032077 Ry
     Harris-Foulkes estimate   =    -924.70033860 Ry
     estimated scf accuracy    <       0.00009726 Ry

     iteration # 19     ecut=    40.00 Ry     beta= 0.70
     Davidson diagonalization with overlap
     ethr =  8.68E-08,  avg # of iterations =  4.5

     total cpu time spent up to now is       59.4 secs

     total energy              =    -924.70037353 Ry
     Harris-Foulkes estimate   =    -924.70037821 Ry
     estimated scf accuracy    <       0.00002230 Ry

     iteration # 20     ecut=    40.00 Ry     beta= 0.70
     Davidson diagonalization with overlap
     ethr =  1.99E-08,  avg # of iterations =  2.2

     total cpu time spent up to now is       59.6 secs

     total energy              =    -924.70037105 Ry
     Harris-Foulkes estimate   =    -924.70037426 Ry
     estimated scf accuracy    <       0.00001184 Ry

     iteration # 21     ecut=    40.00 Ry     beta= 0.70
     Davidson diagonalization with overlap
     ethr =  1.06E-08,  avg # of iterations =  3.8

     total cpu time spent up to now is       60.0 secs

     total energy              =    -924.70037422 Ry
     Harris-Foulkes estimate   =    -924.70037445 Ry
     estimated scf accuracy    <       0.00000274 Ry

     iteration # 22     ecut=    40.00 Ry     beta= 0.70
     Davidson diagonalization with overlap
     ethr =  2.45E-09,  avg # of iterations =  3.0

     total cpu time spent up to now is       60.2 secs

     total energy              =    -924.70037382 Ry
     Harris-Foulkes estimate   =    -924.70037435 Ry
     estimated scf accuracy    <       0.00000235 Ry

     iteration # 23     ecut=    40.00 Ry     beta= 0.70
     Davidson diagonalization with overlap
     ethr =  2.09E-09,  avg # of iterations =  3.8

     total cpu time spent up to now is       60.5 secs

     total energy              =    -924.70037390 Ry
     Harris-Foulkes estimate   =    -924.70037398 Ry
     estimated scf accuracy    <       0.00000052 Ry

     iteration # 24     ecut=    40.00 Ry     beta= 0.70
     Davidson diagonalization with overlap
     ethr =  4.67E-10,  avg # of iterations =  4.2

     total cpu time spent up to now is       60.9 secs

     total energy              =    -924.70037400 Ry
     Harris-Foulkes estimate   =    -924.70037402 Ry
     estimated scf accuracy    <       0.00000007 Ry

     iteration # 25     ecut=    40.00 Ry     beta= 0.70
     Davidson diagonalization with overlap
     ethr =  6.47E-11,  avg # of iterations =  3.8

     total cpu time spent up to now is       61.2 secs

     total energy              =    -924.70037401 Ry
     Harris-Foulkes estimate   =    -924.70037401 Ry
     estimated scf accuracy    <       0.00000002 Ry

     iteration # 26     ecut=    40.00 Ry     beta= 0.70
     Davidson diagonalization with overlap
     ethr =  1.85E-11,  avg # of iterations =  3.8

     total cpu time spent up to now is       61.5 secs

     total energy              =    -924.70037401 Ry
     Harris-Foulkes estimate   =    -924.70037401 Ry
     estimated scf accuracy    <          2.3E-09 Ry

     iteration # 27     ecut=    40.00 Ry     beta= 0.70
     Davidson diagonalization with overlap
     ethr =  2.03E-12,  avg # of iterations =  4.0

     total cpu time spent up to now is       61.9 secs

     End of self-consistent calculation

          k = 0.0000 0.0000 0.0000 (  5641 PWs)   bands (ev):

   -55.7695 -55.7532 -55.7190 -55.7109 -30.0784 -30.0025 -29.9503 -29.9257
   -29.9178 -29.8715 -29.8648 -29.8643 -29.7796 -29.7522 -29.7436 -29.6728
   -10.7093 -10.4951  -9.5133  -9.4853  -8.7757  -8.4812  -8.0007  -7.8804
    -7.8124  -7.6495   2.7209   2.7468   3.0172   3.0524   3.4158   4.1082
     4.3275   4.6247   4.8431   5.3204   5.4447   5.5783   5.8487   5.8571
     5.9235   5.9705   6.0952   6.4025   6.4694   6.5416   6.5931   6.8299
     6.9009   7.0980   7.1789   7.2084   7.3100   7.3227   7.4562   7.6137

          k = 0.0000 0.3135 0.0000 (  5638 PWs)   bands (ev):

   -55.7618 -55.7540 -55.7183 -55.7054 -30.0806 -30.0145 -29.9754 -29.9524
   -29.9326 -29.8705 -29.8690 -29.8621 -29.7806 -29.7496 -29.7434 -29.6712
   -10.5314 -10.3495  -9.4521  -9.4303  -8.5977  -8.3689  -7.7685  -7.7452
    -7.4402  -7.4112   2.6024   2.6355   2.8365   2.8392   2.8817   2.9211
     3.4883   3.5906   3.7446   3.8887   4.7107   4.7619   4.8663   5.5641
     5.6856   5.6857   6.0457   6.1375   6.6245   6.7111   6.8623   6.8980
     7.1460   7.2448   7.4695   7.5215   7.5362   7.8559   8.0406   8.5046

          k = 0.3634 0.0000 0.0000 (  5626 PWs)   bands (ev):

   -55.7438 -55.7372 -55.7217 -55.7173 -30.0968 -30.0455 -30.0449 -30.0186
   -29.9330 -29.9184 -29.9122 -29.8906 -29.8097 -29.7728 -29.7524 -29.6826
    -9.7951  -9.5248  -8.9739  -8.8507  -8.6322  -8.3507  -7.9016  -7.8805
    -7.7836  -7.6606   1.9556   2.1054   2.7206   3.0298   3.4574   3.5799
     3.6156   3.8723   4.4046   4.5478   4.7356   5.1138   5.4797   5.5680
     5.6821   5.7487   5.7854   5.9010   6.2948   6.3114   6.6002   6.8604
     7.0709   7.1274   7.2263   7.3104   7.4245   7.5113   7.5679   7.9487

          k = 0.3634 0.3135 0.0000 (  5665 PWs)   bands (ev):

   -55.7498 -55.7378 -55.7266 -55.7167 -30.0980 -30.0506 -30.0440 -30.0184
   -29.9570 -29.9362 -29.9346 -29.9041 -29.8101 -29.7734 -29.7521 -29.6829
    -9.6315  -9.4093  -8.9449  -8.8357  -8.4273  -8.2575  -7.6126  -7.5950
    -7.4493  -7.4355   1.9513   2.0829   2.5627   2.7694   2.8624   2.9613
     3.1500   3.4272   3.5889   3.6402   3.8252   4.3336   4.5632   4.8425
     4.9574   4.9826   5.2458   5.3726   5.6655   6.2332   6.7534   7.0708
     7.3364   7.3748   7.8727   7.8868   7.9115   7.9963   8.3606   8.4518

     highest occupied level (ev):     8.5046

!    total energy              =    -924.70037401 Ry
     Harris-Foulkes estimate   =    -924.70037401 Ry
     estimated scf accuracy    <          3.2E-11 Ry

     The total energy is the sum of the following terms:

     one-electron contribution =    -458.13023121 Ry
     hartree contribution      =     286.65286540 Ry
     xc contribution           =    -180.49414706 Ry
     ewald contribution        =    -572.72886114 Ry

     convergence has been achieved in  27 iterations

     Forces acting on atoms (cartesian axes, Ry/au):

     atom    1 type  1   force =     0.00000000    0.00930523   -0.02571616
     atom    2 type  1   force =    -0.00000000   -0.00930523    0.02571616
     atom    3 type  1   force =    -0.00000000   -0.00930523   -0.02571616
     atom    4 type  1   force =     0.00000000    0.00930523    0.02571616
     atom    5 type  2   force =     0.00000000    0.03642993   -0.02678277
     atom    6 type  2   force =     0.00000000   -0.03642993    0.02678277
     atom    7 type  2   force =     0.00000000   -0.03642993   -0.02678277
     atom    8 type  2   force =     0.00000000    0.03642993    0.02678277
     atom    9 type  2   force =     0.00000000   -0.11617208    0.00029696
     atom   10 type  2   force =    -0.00000000    0.11617208   -0.00029696
     atom   11 type  2   force =    -0.00000000    0.11617208    0.00029696
     atom   12 type  2   force =     0.00000000   -0.04613926   -0.00000000
     atom   13 type  2   force =     0.00000000    0.04613926    0.00000000
     atom   14 type  2   force =     0.00000000   -0.11617208   -0.00029696

     Total force =     0.263460     Total SCF correction =     0.000006


     Computing stress (Cartesian axis) and pressure

          total   stress  (Ry/bohr**3)                   (kbar)     P=  225.18
   0.00134209   0.00000000   0.00000000        197.43      0.00      0.00
   0.00000000   0.00218801   0.00000000          0.00    321.87      0.00
   0.00000000   0.00000000   0.00106205          0.00      0.00    156.23


     number of scf cycles    =   4
     number of bfgs steps    =   3

     enthalpy old            =    -924.4498595141 Ry
     enthalpy new            =    -924.7003740091 Ry

     CASE: enthalpy_new < enthalpy_old

     new trust radius        =       0.1496280096 bohr
     new conv_thr            =            1.0E-10 Ry

     new unit-cell volume =    933.90873 a.u.^3 (   138.39099 Ang^3 )
     density =      4.36472 g/cm^3

CELL_PARAMETERS (alat=  6.76758343)
   0.929064231   0.000000000   0.000000000
   0.000000000   1.089978427   0.000000000
   0.000000000   0.000000000   2.975362859

ATOMIC_POSITIONS (crystal)
V        0.000000000   0.395792633   0.647967146
V        0.500000076   0.604207519   0.852033083
V        0.500000076   0.604207519   0.147967070
V       -0.000000000   0.395792633   0.352033007
O        0.500000076   0.506892331   0.676000362
O        0.000000000   0.493107821   0.823999867
O        0.000000000   0.493107821   0.176000285
O        0.500000076   0.506892331   0.323999791
O        0.000000000  -0.008164421   0.358054826
O        0.500000076   1.008164574   0.141945250
O        0.500000076   1.008164574   0.858054902
O        0.500000076   0.472673136   0.000000000
O        0.000000000   0.527327015   0.500000076
O        0.000000000  -0.008164421   0.641945327



     Writing output data file v2o5.save/
     NEW-OLD atomic charge density approx. for the potential

     Check: negative core charge=   -0.000206
     extrapolated charge  116.68447, renormalised to  112.00000

     total cpu time spent up to now is       62.5 secs

     Self-consistent Calculation

     iteration #  1     ecut=    40.00 Ry     beta= 0.70
     Davidson diagonalization with overlap
     ethr =  1.00E-06,  avg # of iterations =  9.0

     total cpu time spent up to now is       63.6 secs

     total energy              =    -922.45334382 Ry
     Harris-Foulkes estimate   =    -908.99131179 Ry
     estimated scf accuracy    <       1.99247964 Ry

     iteration #  2     ecut=    40.00 Ry     beta= 0.70
     Davidson diagonalization with overlap
     ethr =  1.78E-03,  avg # of iterations = 10.2

     total cpu time spent up to now is       64.3 secs

     total energy              =    -918.88196053 Ry
     Harris-Foulkes estimate   =    -932.07646771 Ry
     estimated scf accuracy    <      82.01871831 Ry

     iteration #  3     ecut=    40.00 Ry     beta= 0.70
     Davidson diagonalization with overlap
     ethr =  1.78E-03,  avg # of iterations =  5.5

     total cpu time spent up to now is       64.9 secs

     total energy              =    -924.75643247 Ry
     Harris-Foulkes estimate   =    -924.92790750 Ry
     estimated scf accuracy    <       0.53772344 Ry

     iteration #  4     ecut=    40.00 Ry     beta= 0.70
     Davidson diagonalization with overlap
     ethr =  4.80E-04,  avg # of iterations =  2.2

     total cpu time spent up to now is       65.2 secs

     total energy              =    -924.76308402 Ry
     Harris-Foulkes estimate   =    -924.79054768 Ry
     estimated scf accuracy    <       0.19761492 Ry

     iteration #  5     ecut=    40.00 Ry     beta= 0.70
     Davidson diagonalization with overlap
     ethr =  1.76E-04,  avg # of iterations =  1.8

     total cpu time spent up to now is       65.4 secs

     total energy              =    -924.75454866 Ry
     Harris-Foulkes estimate   =    -924.76988457 Ry
     estimated scf accuracy    <       0.14127823 Ry

     iteration #  6     ecut=    40.00 Ry     beta= 0.70
     Davidson diagonalization with overlap
     ethr =  1.26E-04,  avg # of iterations =  1.0

     total cpu time spent up to now is       65.6 secs

     total energy              =    -924.73512880 Ry
     Harris-Foulkes estimate   =    -924.75738305 Ry
     estimated scf accuracy    <       0.10311687 Ry

     iteration #  7     ecut=    40.00 Ry     beta= 0.70
     Davidson diagonalization with overlap
     ethr =  9.21E-05,  avg # of iterations =  3.8

     total cpu time spent up to now is       65.9 secs

     total energy              =    -924.74250848 Ry
     Harris-Foulkes estimate   =    -924.74429631 Ry
     estimated scf accuracy    <       0.02719597 Ry

     iteration #  8     ecut=    40.00 Ry     beta= 0.70
     Davidson diagonalization with overlap
     ethr =  2.43E-05,  avg # of iterations =  4.0

     total cpu time spent up to now is       66.2 secs

     total energy              =    -924.74730960 Ry
     Harris-Foulkes estimate   =    -924.74728400 Ry
     estimated scf accuracy    <       0.00928126 Ry

     iteration #  9     ecut=    40.00 Ry     beta= 0.70
     Davidson diagonalization with overlap
     ethr =  8.29E-06,  avg # of iterations =  2.0

     total cpu time spent up to now is       66.5 secs

     total energy              =    -924.74749858 Ry
     Harris-Foulkes estimate   =    -924.74739941 Ry
     estimated scf accuracy    <       0.00919297 Ry

     iteration # 10     ecut=    40.00 Ry     beta= 0.70
     Davidson diagonalization with overlap
     ethr =  8.21E-06,  avg # of iterations =  1.0

     total cpu time spent up to now is       66.7 secs

     total energy              =    -924.74361946 Ry
     Harris-Foulkes estimate   =    -924.74751545 Ry
     estimated scf accuracy    <       0.00936447 Ry

     iteration # 11     ecut=    40.00 Ry     beta= 0.70
     Davidson diagonalization with overlap
     ethr =  8.21E-06,  avg # of iterations =  4.2

     total cpu time spent up to now is       67.2 secs

     total energy              =    -924.75011175 Ry
     Harris-Foulkes estimate   =    -924.74783371 Ry
     estimated scf accuracy    <       0.02024310 Ry

     iteration # 12     ecut=    40.00 Ry     beta= 0.70
     Davidson diagonalization with overlap
     ethr =  8.21E-06,  avg # of iterations =  1.0

     total cpu time spent up to now is       67.4 secs

     total energy              =    -924.74557577 Ry
     Harris-Foulkes estimate   =    -924.75028136 Ry
     estimated scf accuracy    <       0.02782979 Ry

     iteration # 13     ecut=    40.00 Ry     beta= 0.70
     Davidson diagonalization with overlap
     ethr =  8.21E-06,  avg # of iterations =  1.2

     total cpu time spent up to now is       67.6 secs

     total energy              =    -924.74457469 Ry
     Harris-Foulkes estimate   =    -924.74589387 Ry
     estimated scf accuracy    <       0.01745932 Ry

     iteration # 14     ecut=    40.00 Ry     beta= 0.70
     Davidson diagonalization with overlap
     ethr =  8.21E-06,  avg # of iterations =  3.0

     total cpu time spent up to now is       67.8 secs

     total energy              =    -924.74398311 Ry
     Harris-Foulkes estimate   =    -924.74494999 Ry
     estimated scf accuracy    <       0.01025073 Ry

     iteration # 15     ecut=    40.00 Ry     beta= 0.70
     Davidson diagonalization with overlap
     ethr =  8.21E-06,  avg # of iterations =  2.2

     total cpu time spent up to now is       68.1 secs

     total energy              =    -924.74131200 Ry
     Harris-Foulkes estimate   =    -924.74429911 Ry
     estimated scf accuracy    <       0.00660409 Ry

     iteration # 16     ecut=    40.00 Ry     beta= 0.70
     Davidson diagonalization with overlap
     ethr =  5.90E-06,  avg # of iterations =  4.0

     total cpu time spent up to now is       68.5 secs

     total energy              =    -924.74373785 Ry
[...]
     number of atoms/cell      =           14
     number of atomic types    =            2
     number of electrons       =       112.00
     number of Kohn-Sham states=           56
     kinetic-energy cutoff     =      40.0000  Ry
     charge density cutoff     =     160.0000  Ry
     convergence threshold     =      1.0E-12
     mixing beta               =       0.7000
     number of iterations used =            8  plain     mixing
     Exchange-correlation      = VDW-DF ( 1  4  4  0 1 0)

     celldm(1)=   6.767583  celldm(2)=   1.308375  celldm(3)=   3.255230
     celldm(4)=   0.000000  celldm(5)=   0.000000  celldm(6)=   0.000000

     crystal axes: (cart. coord. in units of alat)
               a(1) = (   0.900236   0.000000   0.000000 )  
               a(2) = (   0.000000   1.126608   0.000000 )  
               a(3) = (   0.000000   0.000000   2.879421 )  

     reciprocal axes: (cart. coord. in units 2 pi/alat)
               b(1) = (  1.110820  0.000000  0.000000 )  
               b(2) = (  0.000000  0.887620  0.000000 )  
               b(3) = (  0.000000  0.000000  0.347292 )  


     PseudoPot. # 1 for V  read from file:
     /home/mpicuntureo/pseudos/v.nc.upf
     MD5 check sum: 40fb93c06b4f9d8c28c5ccd071294a04
     Pseudo is Norm-conserving + core correction, Zval = 13.0
     Generated using ONCVPSP code by D. R. Hamann
     Using radial grid of 1536 points,  6 beta functions with: 
                l(1) =   0
                l(2) =   0
                l(3) =   1
                l(4) =   1
                l(5) =   2
                l(6) =   2

     PseudoPot. # 2 for O  read from file:
     /home/mpicuntureo/pseudos/o.nc.upf
     MD5 check sum: 3e3f909f7470e8921608ab6b1f57bbae
     Pseudo is Norm-conserving + core correction, Zval =  6.0
     Generated using ONCVPSP code by D. R. Hamann
     Using radial grid of  936 points,  5 beta functions with: 
                l(1) =   0
                l(2) =   0
                l(3) =   1
                l(4) =   1
                l(5) =   2

     vdW kernel table read from file vdW_kernel_table
     MD5 check sum: 8c4337f4b28e1601c069d7ef7b6561bc

     atomic species   valence    mass     pseudopotential
        V             13.00    50.94150     V ( 1.00)
        O              6.00    15.99940     O ( 1.00)

      8 Sym. Ops., with inversion, found ( 4 have fractional translation)



   Cartesian axes

     site n.     atom                  positions (alat units)
         1           V   tau(   1) = (  -0.0000000   0.3603636   1.8846837  )
         2           V   tau(   2) = (   0.4501181   0.7662445   2.4344490  )
         3           V   tau(   3) = (   0.4501181   0.7662445   0.4449728  )
         4           V   tau(   4) = (  -0.0000000   0.3603636   0.9947381  )
         5           O   tau(   5) = (   0.4501181   0.5615400   1.9330018  )
         6           O   tau(   6) = (  -0.0000000   0.5650681   2.3861309  )
         7           O   tau(   7) = (  -0.0000000   0.5650681   0.4932909  )
         8           O   tau(   8) = (   0.4501181   0.5615400   0.9464200  )
         9           O   tau(   9) = (  -0.0000000  -0.0773290   1.0331856  )
        10           O   tau(  10) = (   0.4501181   1.2039371   0.4065253  )
        11           O   tau(  11) = (   0.4501181   1.2039371   2.4728964  )
        12           O   tau(  12) = (   0.4501181   0.6093846   0.0000000  )
        13           O   tau(  13) = (   0.0000000   0.5172234   1.4397109  )
        14           O   tau(  14) = (  -0.0000000  -0.0773290   1.8462362  )

     number of k points=     4
                       cart. coord. in units 2pi/alat
        k(    1) = (   0.0000000   0.0000000   0.0000000), wk =   0.2222222
        k(    2) = (   0.0000000   0.2958734   0.0000000), wk =   0.4444444
        k(    3) = (   0.3702732   0.0000000   0.0000000), wk =   0.4444444
        k(    4) = (   0.3702732   0.2958734   0.0000000), wk =   0.8888889

     Dense  grid:    30921 G-vectors     FFT dimensions: (  30,  32,  80)

     Estimated max dynamical RAM per process >       7.05 MB

     Estimated total dynamical RAM >     225.59 MB

     Check: negative core charge=   -0.000702

     Initial potential from superposition of free atoms

     starting charge  111.99579, renormalised to  112.00000
     Starting wfcs are   80 randomized atomic wfcs

     total cpu time spent up to now is      318.3 secs

     Self-consistent Calculation

     iteration #  1     ecut=    40.00 Ry     beta= 0.70
     Davidson diagonalization with overlap
     ethr =  1.00E-06,  avg # of iterations =  7.2

     total cpu time spent up to now is      319.6 secs

     total energy              =    -918.27570408 Ry
     Harris-Foulkes estimate   =    -924.08357305 Ry
     estimated scf accuracy    <       7.41871344 Ry

     iteration #  2     ecut=    40.00 Ry     beta= 0.70
     Davidson diagonalization with overlap
     ethr =  6.62E-03,  avg # of iterations =  5.5

     total cpu time spent up to now is      320.3 secs

     total energy              =    -909.77247008 Ry
     Harris-Foulkes estimate   =    -932.96991358 Ry
     estimated scf accuracy    <      90.71932746 Ry

     iteration #  3     ecut=    40.00 Ry     beta= 0.70
     Davidson diagonalization with overlap
     ethr =  6.62E-03,  avg # of iterations =  4.5

     total cpu time spent up to now is      321.0 secs

     total energy              =    -922.24508746 Ry
     Harris-Foulkes estimate   =    -922.81074289 Ry
     estimated scf accuracy    <       2.09864774 Ry

     iteration #  4     ecut=    40.00 Ry     beta= 0.70
     Davidson diagonalization with overlap
     ethr =  1.87E-03,  avg # of iterations =  4.0

     total cpu time spent up to now is      321.4 secs

     total energy              =    -922.29499328 Ry
     Harris-Foulkes estimate   =    -922.47034827 Ry
     estimated scf accuracy    <       0.95243848 Ry

     iteration #  5     ecut=    40.00 Ry     beta= 0.70
     Davidson diagonalization with overlap
     ethr =  8.50E-04,  avg # of iterations =  3.0

     total cpu time spent up to now is      321.7 secs

     total energy              =    -922.30299525 Ry
     Harris-Foulkes estimate   =    -922.36531726 Ry
     estimated scf accuracy    <       0.36678119 Ry

     iteration #  6     ecut=    40.00 Ry     beta= 0.70
     Davidson diagonalization with overlap
     ethr =  3.27E-04,  avg # of iterations =  4.0

     total cpu time spent up to now is      322.2 secs

     total energy              =    -922.34928563 Ry
     Harris-Foulkes estimate   =    -922.36506509 Ry
     estimated scf accuracy    <       0.03709311 Ry

     iteration #  7     ecut=    40.00 Ry     beta= 0.70
     Davidson diagonalization with overlap
     ethr =  3.31E-05,  avg # of iterations =  4.2

     total cpu time spent up to now is      322.7 secs

     total energy              =    -922.36238614 Ry
     Harris-Foulkes estimate   =    -922.36725069 Ry
     estimated scf accuracy    <       0.02344064 Ry

     iteration #  8     ecut=    40.00 Ry     beta= 0.70
     Davidson diagonalization with overlap
     ethr =  2.09E-05,  avg # of iterations =  2.5

     total cpu time spent up to now is      323.0 secs

     total energy              =    -922.36083799 Ry
     Harris-Foulkes estimate   =    -922.36363877 Ry
     estimated scf accuracy    <       0.01072717 Ry

     iteration #  9     ecut=    40.00 Ry     beta= 0.70
     Davidson diagonalization with overlap
     ethr =  9.58E-06,  avg # of iterations =  3.5

     total cpu time spent up to now is      323.5 secs

     total energy              =    -922.36287887 Ry
     Harris-Foulkes estimate   =    -922.36323687 Ry
     estimated scf accuracy    <       0.00119254 Ry

     iteration # 10     ecut=    40.00 Ry     beta= 0.70
     Davidson diagonalization with overlap
     ethr =  1.06E-06,  avg # of iterations =  3.8

     total cpu time spent up to now is      323.9 secs

     total energy              =    -922.36287708 Ry
     Harris-Foulkes estimate   =    -922.36297289 Ry
     estimated scf accuracy    <       0.00024410 Ry

     iteration # 11     ecut=    40.00 Ry     beta= 0.70
     Davidson diagonalization with overlap
     ethr =  2.18E-07,  avg # of iterations =  4.2

     total cpu time spent up to now is      324.4 secs

     total energy              =    -922.36297593 Ry
     Harris-Foulkes estimate   =    -922.36298924 Ry
     estimated scf accuracy    <       0.00003764 Ry

     iteration # 12     ecut=    40.00 Ry     beta= 0.70
     Davidson diagonalization with overlap
     ethr =  3.36E-08,  avg # of iterations =  3.8

     total cpu time spent up to now is      324.8 secs

     total energy              =    -922.36297988 Ry
     Harris-Foulkes estimate   =    -922.36298036 Ry
     estimated scf accuracy    <       0.00000234 Ry

     iteration # 13     ecut=    40.00 Ry     beta= 0.70
     Davidson diagonalization with overlap
     ethr =  2.09E-09,  avg # of iterations =  4.5

     total cpu time spent up to now is      325.4 secs

     total energy              =    -922.36298093 Ry
     Harris-Foulkes estimate   =    -922.36298112 Ry
     estimated scf accuracy    <       0.00000068 Ry

     iteration # 14     ecut=    40.00 Ry     beta= 0.70
     Davidson diagonalization with overlap
     ethr =  6.10E-10,  avg # of iterations =  3.5

     total cpu time spent up to now is      325.8 secs

     total energy              =    -922.36298097 Ry
     Harris-Foulkes estimate   =    -922.36298100 Ry
     estimated scf accuracy    <       0.00000008 Ry

     iteration # 15     ecut=    40.00 Ry     beta= 0.70
     Davidson diagonalization with overlap
     ethr =  6.79E-11,  avg # of iterations =  4.2

     total cpu time spent up to now is      326.4 secs

     total energy              =    -922.36298101 Ry
     Harris-Foulkes estimate   =    -922.36298102 Ry
     estimated scf accuracy    <       0.00000005 Ry

     iteration # 16     ecut=    40.00 Ry     beta= 0.70
     Davidson diagonalization with overlap
     ethr =  4.83E-11,  avg # of iterations =  3.0

     total cpu time spent up to now is      326.7 secs

     total energy              =    -922.36298101 Ry
     Harris-Foulkes estimate   =    -922.36298101 Ry
     estimated scf accuracy    <       0.00000002 Ry

     iteration # 17     ecut=    40.00 Ry     beta= 0.70
     Davidson diagonalization with overlap
     ethr =  1.57E-11,  avg # of iterations =  4.0

     total cpu time spent up to now is      327.2 secs

     total energy              =    -922.36298101 Ry
     Harris-Foulkes estimate   =    -922.36298102 Ry
     estimated scf accuracy    <          4.6E-09 Ry

     iteration # 18     ecut=    40.00 Ry     beta= 0.70
     Davidson diagonalization with overlap
     ethr =  4.10E-12,  avg # of iterations =  4.0

     total cpu time spent up to now is      327.6 secs

     total energy              =    -922.36298101 Ry
     Harris-Foulkes estimate   =    -922.36298101 Ry
     estimated scf accuracy    <          2.1E-11 Ry

     iteration # 19     ecut=    40.00 Ry     beta= 0.70
     Davidson diagonalization with overlap
     ethr =  1.00E-13,  avg # of iterations =  4.8

     total cpu time spent up to now is      328.2 secs

     total energy              =    -922.36298101 Ry
     Harris-Foulkes estimate   =    -922.36298101 Ry
     estimated scf accuracy    <          1.6E-11 Ry

     iteration # 20     ecut=    40.00 Ry     beta= 0.70
     Davidson diagonalization with overlap
     ethr =  1.00E-13,  avg # of iterations =  1.0

     total cpu time spent up to now is      328.5 secs

     total energy              =    -922.36298101 Ry
     Harris-Foulkes estimate   =    -922.36298101 Ry
     estimated scf accuracy    <          8.1E-12 Ry

     iteration # 21     ecut=    40.00 Ry     beta= 0.70
     Davidson diagonalization with overlap
     ethr =  1.00E-13,  avg # of iterations =  1.0

     total cpu time spent up to now is      328.7 secs

     total energy              =    -922.36298101 Ry
     Harris-Foulkes estimate   =    -922.36298101 Ry
     estimated scf accuracy    <          3.5E-12 Ry

     iteration # 22     ecut=    40.00 Ry     beta= 0.70
     Davidson diagonalization with overlap
     ethr =  1.00E-13,  avg # of iterations =  1.0

     total cpu time spent up to now is      329.0 secs

     total energy              =    -922.36298101 Ry
     Harris-Foulkes estimate   =    -922.36298101 Ry
     estimated scf accuracy    <          2.0E-12 Ry

     iteration # 23     ecut=    40.00 Ry     beta= 0.70
     Davidson diagonalization with overlap
     ethr =  1.00E-13,  avg # of iterations =  1.0

     total cpu time spent up to now is      329.2 secs

     total energy              =    -922.36298101 Ry
     Harris-Foulkes estimate   =    -922.36298101 Ry
     estimated scf accuracy    <          1.2E-12 Ry

     iteration # 24     ecut=    40.00 Ry     beta= 0.70
     Davidson diagonalization with overlap
     ethr =  1.00E-13,  avg # of iterations =  1.0

     total cpu time spent up to now is      329.5 secs

     End of self-consistent calculation

          k = 0.0000 0.0000 0.0000 (  3857 PWs)   bands (ev):

   -56.7980 -56.7368 -56.7335 -56.7150 -31.1778 -31.1458 -31.1409 -31.1406
   -31.0944 -31.0441 -30.9925 -30.9867 -30.9756 -30.9379 -30.9357 -30.9112
   -10.8410 -10.6105  -9.5318  -9.3354  -8.7809  -8.6553  -7.9481  -7.9042
    -7.8730  -7.8581   3.0073   3.0428   3.1292   3.4062   3.5467   3.7424
     3.8776   4.3359   4.7220   4.9644   5.1137   5.4727   6.0434   6.1518
     6.2284   6.4555   6.4724   6.7566   6.7827   6.8682   6.8854   6.9284
     7.1514   7.1529   7.2322   7.4928   7.5286   7.7186   7.9375   8.0726

          k = 0.0000 0.2959 0.0000 (  3868 PWs)   bands (ev):

   -56.7713 -56.7696 -56.7249 -56.7246 -31.1856 -31.1650 -31.1623 -31.1228
   -31.1202 -31.0394 -30.9960 -30.9783 -30.9751 -30.9340 -30.9267 -30.9186
   -10.5959 -10.3956  -9.3951  -9.2398  -8.7584  -8.6488  -8.0900  -7.9894
    -7.7649  -7.6721   2.7726   2.7850   2.8075   2.9843   3.0344   3.1291
     3.5886   3.6518   3.8883   4.2039   4.2746   4.4777   5.5674   6.1591
     6.2182   6.2499   6.4000   6.5586   6.7232   6.8728   7.0971   7.7379
     7.7981   7.8624   8.0161   8.1664   8.1779   8.1809   8.5253   8.6509

          k = 0.3703 0.0000 0.0000 (  3850 PWs)   bands (ev):

   -56.7539 -56.7444 -56.7375 -56.7123 -31.1740 -31.1488 -31.1395 -31.1258
   -31.1054 -31.1016 -31.0918 -31.0678 -31.0011 -30.9921 -30.9657 -30.9350
   -10.0625  -9.8511  -9.1027  -9.0637  -8.9297  -8.6308  -7.9904  -7.9146
    -7.9115  -7.9097   2.8482   2.8932   3.0344   3.6670   3.8582   3.8843
     4.0435   4.1949   4.4424   4.7511   5.2288   5.2893   5.4164   5.7562
     5.8449   5.9754   6.0482   6.1470   6.5496   6.7170   6.8634   7.1161
     7.2108   7.3171   7.3661   7.3746   7.6635   8.0094   8.0296   8.4954

          k = 0.3703 0.2959 0.0000 (  3888 PWs)   bands (ev):

   -56.7673 -56.7547 -56.7504 -56.7478 -31.1833 -31.1638 -31.1501 -31.1317
   -31.1217 -31.1174 -31.0993 -31.0626 -31.0080 -30.9973 -30.9761 -30.9412
    -9.8926  -9.7142  -9.0974  -9.0636  -8.8083  -8.6092  -7.9341  -7.8641
    -7.7778  -7.7108   2.5627   2.6397   2.7288   3.1339   3.4022   3.4560
     3.6901   3.8182   3.8742   3.9610   4.2243   4.4336   4.9549   5.5182
     5.5830   5.7672   6.2394   6.3226   6.5685   6.7446   7.3119   7.3352
     7.5042   7.6300   7.8553   8.0657   8.1243   8.1908   8.5175   8.7901

     highest occupied level (ev):     8.7901

!    total energy              =    -922.36298101 Ry
     Harris-Foulkes estimate   =    -922.36298101 Ry
     estimated scf accuracy    <          5.3E-13 Ry

     The total energy is the sum of the following terms:

     one-electron contribution =    -420.78137540 Ry
     hartree contribution      =     266.18546419 Ry
     xc contribution           =    -179.00602192 Ry
     ewald contribution        =    -588.76104789 Ry

     convergence has been achieved in  24 iterations

     Forces acting on atoms (cartesian axes, Ry/au):

     atom    1 type  1   force =     0.00000000    0.08859294    0.03973463
     atom    2 type  1   force =    -0.00000000   -0.08859294   -0.03973463
     atom    3 type  1   force =     0.00000000   -0.08859294    0.03973463
     atom    4 type  1   force =     0.00000000    0.08859294   -0.03973463
     atom    5 type  2   force =     0.00000000   -0.00143276    0.01159484
     atom    6 type  2   force =     0.00000000    0.00143276   -0.01159484
     atom    7 type  2   force =     0.00000000    0.00143276    0.01159484
     atom    8 type  2   force =    -0.00000000   -0.00143276   -0.01159484
     atom    9 type  2   force =     0.00000000   -0.06274132    0.00517242
     atom   10 type  2   force =     0.00000000    0.06274132   -0.00517242
     atom   11 type  2   force =     0.00000000    0.06274132    0.00517242
     atom   12 type  2   force =     0.00000000   -0.01413522   -0.00000000
     atom   13 type  2   force =     0.00000000    0.01413522    0.00000000
     atom   14 type  2   force =     0.00000000   -0.06274132   -0.00517242

     Total force =     0.233471     Total SCF correction =     0.000002


     Computing stress (Cartesian axis) and pressure

          total   stress  (Ry/bohr**3)                   (kbar)     P=-1106.67
  -0.00675139   0.00000000   0.00000000       -993.16      0.00      0.00
   0.00000000  -0.00840763   0.00000000          0.00  -1236.80      0.00
   0.00000000   0.00000000  -0.00740998          0.00      0.00  -1090.05


     Writing output data file v2o5.save/

     init_run     :      0.59s CPU      0.61s WALL (       2 calls)
     electrons    :    299.44s CPU    305.59s WALL (      28 calls)
     update_pot   :      6.29s CPU      6.31s WALL (      26 calls)
     forces       :      5.99s CPU      6.07s WALL (      28 calls)
     stress       :     10.26s CPU     10.30s WALL (      28 calls)

     Called by init_run:
     wfcinit      :      0.28s CPU      0.29s WALL (       2 calls)
     potinit      :      0.11s CPU      0.11s WALL (       2 calls)
     hinit0       :      0.18s CPU      0.18s WALL (       2 calls)

     Called by electrons:
     c_bands      :    278.70s CPU    284.26s WALL (     566 calls)
     sum_band     :     11.48s CPU     11.79s WALL (     566 calls)
     v_of_rho     :      8.79s CPU      8.88s WALL (     592 calls)
     mix_rho      :      0.69s CPU      0.71s WALL (     566 calls)

     Called by c_bands:
     init_us_2    :      1.16s CPU      1.19s WALL (    4760 calls)
     cegterg      :    273.53s CPU    278.92s WALL (    2264 calls)

     Called by sum_band:

     Called by *egterg:
     h_psi        :    118.70s CPU    121.66s WALL (   10855 calls)
     g_psi        :      0.41s CPU      0.42s WALL (    8583 calls)
     cdiaghg      :     91.11s CPU     93.00s WALL (   10735 calls)

     Called by h_psi:
     h_psi:pot    :    118.41s CPU    121.37s WALL (   10855 calls)
     h_psi:calbec :     31.29s CPU     32.75s WALL (   10855 calls)
     vloc_psi     :     62.95s CPU     64.33s WALL (   10855 calls)
     add_vuspsi   :     24.14s CPU     24.26s WALL (   10855 calls)

     General routines
     calbec       :     33.97s CPU     35.53s WALL (   11415 calls)
     fft          :      5.43s CPU      5.47s WALL (   40252 calls)
     ffts         :      0.08s CPU      0.08s WALL (     566 calls)
     fftw         :     68.99s CPU     70.54s WALL (  876206 calls)

     Parallel routines
     fft_scatt_xy :      3.74s CPU      3.81s WALL (  917024 calls)
     fft_scatt_yz :     46.28s CPU     47.36s WALL (  917024 calls)

     PWSCF        :   5m23.48s CPU   5m30.03s WALL


   This run was terminated on:  22:52:59  18May2024            

=------------------------------------------------------------------------------=
   JOB DONE.
=------------------------------------------------------------------------------=
