
     Program PWSCF v.6.4.1 starts on 11Jun2024 at 23:59:11 

     This program is part of the open-source Quantum ESPRESSO suite
     for quantum simulation of materials; please cite
         "P. Giannozzi et al., J. Phys.:Condens. Matter 21 395502 (2009);
         "P. Giannozzi et al., J. Phys.:Condens. Matter 29 465901 (2017);
          URL http://www.quantum-espresso.org", 
     in publications or presentations arising from this work. More details at
     http://www.quantum-espresso.org/quote

     Parallel version (MPI), running on    32 processors

     MPI processes distributed on     1 nodes
     R & G space division:  proc/nbgrp/npool/nimage =      32
     Reading input from v16o39.rlx.in
Warning: card &CELL ignored
Warning: card     CELL_DYNAMICS  = "BFGS" ignored
Warning: card / ignored

     Current dimensions of program PWSCF are:
     Max number of different atomic species (ntypx) = 10
     Max number of k-points (npk) =  40000
     Max angular momentum in pseudopotentials (lmaxx) =  3
               file V.pbe-spnl-kjpaw_psl.1.0.0.UPF: wavefunction(s)  3P 3D renormalized
               file O.pbe-n-kjpaw_psl.1.0.0.UPF: wavefunction(s)  2S 2P renormalized

     -------------------------------------------------
     Parameters for Dispersion (Grimme-D2) Correction:
     -------------------------------------------------
       atom      VdW radius       C_6     

        V          2.952        374.666
        O          2.536         24.284

     Subspace diagonalization in iterative solution of the eigenvalue problem:
     one sub-group per band group will be used
     ELPA distributed-memory algorithm (size of sub-group:  4*  4 procs)


     Parallelization info
     --------------------
     sticks:   dense  smooth     PW     G-vecs:    dense   smooth      PW
     Min         358     143     38                42576    10773    1516
     Max         359     144     39                42583    10782    1523
     Sum       11479    4589   1239              1362541   344825   48629



     bravais-lattice index     =            8
     lattice parameter (alat)  =      13.3968  a.u.
     unit-cell volume          =    4868.8223 (a.u.)^3
     number of atoms/cell      =           55
     number of atomic types    =            2
     number of electrons       =       442.00
     number of Kohn-Sham states=          265
     kinetic-energy cutoff     =      65.0000  Ry
     charge density cutoff     =     650.0000  Ry
     convergence threshold     =      1.0E-09
     mixing beta               =       0.7000
     number of iterations used =            8  plain     mixing
     Exchange-correlation      = SLA PW PBX PBC ( 1  4  3  4 0 0)
     nstep                     =          500


     celldm(1)=  13.396828  celldm(2)=   1.235512  celldm(3)=   1.638970
     celldm(4)=   0.000000  celldm(5)=   0.000000  celldm(6)=   0.000000

     crystal axes: (cart. coord. in units of alat)
               a(1) = (   1.000000   0.000000   0.000000 )  
               a(2) = (   0.000000   1.235512   0.000000 )  
               a(3) = (   0.000000   0.000000   1.638970 )  

     reciprocal axes: (cart. coord. in units 2 pi/alat)
               b(1) = (  1.000000  0.000000  0.000000 )  
               b(2) = (  0.000000  0.809381  0.000000 )  
               b(3) = (  0.000000  0.000000  0.610139 )  


     PseudoPot. # 1 for V  read from file:
     /home/mpicuntureo/pseudos/V.pbe-spnl-kjpaw_psl.1.0.0.UPF
     MD5 check sum: 069c5df6a0a9f40a694a86a6cab52b89
     Pseudo is Projector augmented-wave + core cor, Zval = 13.0
     Generated using "atomic" code by A. Dal Corso v.6.3
     Shape of augmentation charge: PSQ
     Using radial grid of 1181 points,  6 beta functions with: 
                l(1) =   0
                l(2) =   0
                l(3) =   1
                l(4) =   1
                l(5) =   2
                l(6) =   2
     Q(r) pseudized with 0 coefficients 


     PseudoPot. # 2 for O  read from file:
     /home/mpicuntureo/pseudos/O.pbe-n-kjpaw_psl.1.0.0.UPF
     MD5 check sum: e99d9cef9b487d1ca56f5b95ecd0fd7a
     Pseudo is Projector augmented-wave + core cor, Zval =  6.0
     Generated using "atomic" code by A. Dal Corso v.6.3
     Shape of augmentation charge: PSQ
     Using radial grid of 1095 points,  4 beta functions with: 
                l(1) =   0
                l(2) =   0
                l(3) =   1
                l(4) =   1
     Q(r) pseudized with 0 coefficients 


     atomic species   valence    mass     pseudopotential
        V             13.00    50.94150     V ( 1.00)
        O              6.00    15.99940     O ( 1.00)

      2 Sym. Ops. (no inversion) found ( 1 have fractional translation)



   Cartesian axes

     site n.     atom                  positions (alat units)
         1           V   tau(   1) = (  -0.0002819   0.2341828   1.0621568  )
         2           V   tau(   2) = (   0.2500000   0.3868258   1.3917869  )
         3           V   tau(   3) = (   0.2500000   0.3845179   0.2412087  )
         4           V   tau(   4) = (   0.0006942   0.2294971   0.5734394  )
         5           O   tau(   5) = (   0.2500000   0.3070304   1.1135387  )
         6           O   tau(   6) = (  -0.0008942   0.3154986   1.3414364  )
         7           O   tau(   7) = (  -0.0020579   0.3155892   0.2951228  )
         8           O   tau(   8) = (   0.2500000   0.2981857   0.5181751  )
         9           O   tau(   9) = (   0.0036570   0.0035916   0.5714802  )
        10           O   tau(  10) = (   0.2500000   0.6098541   0.2449647  )
        11           O   tau(  11) = (   0.2500000   0.6116232   1.3884701  )
        12           O   tau(  12) = (   0.2500000   0.3261385  -0.0022530  )
        13           O   tau(  13) = (  -0.0000835   0.2921028   0.8167127  )
        14           O   tau(  14) = (  -0.0001274   0.0091285   1.0658712  )
        15           V   tau(  15) = (  -0.0007787   0.8630419   1.0592969  )
        16           V   tau(  16) = (   0.2500000   1.0008739   1.3842294  )
        17           V   tau(  17) = (   0.2500000   0.9978789   0.2191918  )
        18           V   tau(  18) = (  -0.0046766   0.8503836   0.5853435  )
        19           O   tau(  19) = (   0.2500000   0.9282697   1.1175604  )
        20           O   tau(  20) = (  -0.0026724   0.9288401   1.3399866  )
        21           O   tau(  21) = (   0.0222580   0.9292678   0.3237747  )
        22           O   tau(  22) = (   0.0280359   0.6281625   0.5912113  )
        23           O   tau(  23) = (   0.2500000   1.2232236   0.2148753  )
        24           O   tau(  24) = (   0.2500000   1.2246655   1.4007264  )
        25           O   tau(  25) = (   0.2500000   0.9208711  -0.0107340  )
        26           O   tau(  26) = (   0.0337471   0.9343406   0.8137731  )
        27           O   tau(  27) = (  -0.0049604   0.6389674   1.0478108  )
        28           V   tau(  28) = (   0.5002819   0.2341828   1.0621568  )
        29           V   tau(  29) = (   0.7500000   0.3892220   1.3937953  )
        30           V   tau(  30) = (   0.7500000   0.3935469   0.2460214  )
        31           V   tau(  31) = (   0.4993058   0.2294971   0.5734394  )
        32           O   tau(  32) = (   0.7500000   0.3068029   1.1142991  )
        33           O   tau(  33) = (   0.5008942   0.3154986   1.3414364  )
        34           O   tau(  34) = (   0.5020579   0.3155892   0.2951228  )
        35           O   tau(  35) = (   0.7500000   0.3027980   0.5219136  )
        36           O   tau(  36) = (   0.4963430   0.0035916   0.5714802  )
        37           O   tau(  37) = (   0.7500000   0.6209939   0.2560209  )
        38           O   tau(  38) = (   0.7500000   0.6143564   1.3883302  )
        39           O   tau(  39) = (   0.7500000   0.3342265   0.0023593  )
        40           O   tau(  40) = (   0.5000835   0.2921028   0.8167127  )
        41           O   tau(  41) = (   0.5001274   0.0091285   1.0658712  )
        42           V   tau(  42) = (   0.5007787   0.8630419   1.0592969  )
        43           V   tau(  43) = (   0.7500000   0.9949050   1.4001854  )
        44           V   tau(  44) = (   0.7500000   0.9753742   0.2514903  )
        45           V   tau(  45) = (   0.5046766   0.8503836   0.5853435  )
        46           O   tau(  46) = (   0.7500000   0.9355152   1.1010705  )
        47           O   tau(  47) = (   0.5026724   0.9288401   1.3399866  )
        48           O   tau(  48) = (   0.4777420   0.9292678   0.3237747  )
        49           O   tau(  49) = (   0.7500000   0.8976842   0.5428585  )
        50           O   tau(  50) = (   0.4719641   0.6281625   0.5912113  )
        51           O   tau(  51) = (   0.7500000   1.1989640   0.2525337  )
        52           O   tau(  52) = (   0.7500000   1.2187811   1.4136153  )
        53           O   tau(  53) = (   0.7500000   0.9236815   0.0096299  )
        54           O   tau(  54) = (   0.4662529   0.9343406   0.8137731  )
        55           O   tau(  55) = (   0.5049604   0.6389674   1.0478108  )

     number of k points=     8  gaussian smearing, width (Ry)=  0.0500
                       cart. coord. in units 2pi/alat
        k(    1) = (   0.0000000   0.0000000   0.0000000), wk =   0.2500000
        k(    2) = (   0.0000000   0.0000000  -0.3050697), wk =   0.2500000
        k(    3) = (   0.0000000  -0.4046905   0.0000000), wk =   0.2500000
        k(    4) = (   0.0000000  -0.4046905  -0.3050697), wk =   0.2500000
        k(    5) = (  -0.5000000   0.0000000   0.0000000), wk =   0.2500000
        k(    6) = (  -0.5000000   0.0000000  -0.3050697), wk =   0.2500000
        k(    7) = (  -0.5000000  -0.4046905   0.0000000), wk =   0.2500000
        k(    8) = (  -0.5000000  -0.4046905  -0.3050697), wk =   0.2500000

     Dense  grid:  1362541 G-vectors     FFT dimensions: ( 120, 135, 180)

     Smooth grid:   344825 G-vectors     FFT dimensions: (  72,  90, 120)

     Estimated max dynamical RAM per process >     322.74 MB

     Estimated total dynamical RAM >      10.09 GB

     Check: negative core charge=   -0.000001

     Initial potential from superposition of free atoms

     starting charge  441.98541, renormalised to  442.00000
     Starting wfcs are  316 randomized atomic wfcs
     Checking if some PAW data can be deallocated... 

     total cpu time spent up to now is       49.2 secs

     Self-consistent Calculation

     iteration #  1     ecut=    65.00 Ry     beta= 0.70
     Davidson diagonalization with overlap
     ethr =  1.00E-02,  avg # of iterations =  2.0

     total cpu time spent up to now is      247.1 secs

     total energy              =   -5031.97266563 Ry
     Harris-Foulkes estimate   =   -5058.32350008 Ry
     estimated scf accuracy    <      32.49992905 Ry

     iteration #  2     ecut=    65.00 Ry     beta= 0.70
     Davidson diagonalization with overlap
     ethr =  7.35E-03,  avg # of iterations =  4.2

     total cpu time spent up to now is      804.9 secs

     total energy              =   -4990.09641216 Ry
     Harris-Foulkes estimate   =   -5132.47296424 Ry
     estimated scf accuracy    <     666.50872248 Ry

     iteration #  3     ecut=    65.00 Ry     beta= 0.70
     Davidson diagonalization with overlap
     ethr =  7.35E-03,  avg # of iterations =  5.0

     total cpu time spent up to now is     1353.7 secs

     total energy              =   -5046.84866232 Ry
     Harris-Foulkes estimate   =   -5056.84726412 Ry
     estimated scf accuracy    <      47.92536504 Ry

     iteration #  4     ecut=    65.00 Ry     beta= 0.70
     Davidson diagonalization with overlap
     ethr =  7.35E-03,  avg # of iterations =  7.0

     total cpu time spent up to now is     1584.0 secs

     total energy              =   -5050.91304746 Ry
     Harris-Foulkes estimate   =   -5054.92777317 Ry
     estimated scf accuracy    <      17.02089105 Ry

     iteration #  5     ecut=    65.00 Ry     beta= 0.70
     Davidson diagonalization with overlap
     ethr =  3.85E-03,  avg # of iterations =  5.0

     total cpu time spent up to now is     1817.8 secs

     total energy              =   -5053.24575893 Ry
     Harris-Foulkes estimate   =   -5054.19708076 Ry
     estimated scf accuracy    <       4.53122856 Ry

     iteration #  6     ecut=    65.00 Ry     beta= 0.70
     Davidson diagonalization with overlap
     ethr =  1.03E-03,  avg # of iterations =  9.0

     negative rho (up, down):  8.470E-07 0.000E+00

     total cpu time spent up to now is     2086.4 secs

     total energy              =   -5053.43513582 Ry
     Harris-Foulkes estimate   =   -5053.67149682 Ry
     estimated scf accuracy    <       2.18826236 Ry

     iteration #  7     ecut=    65.00 Ry     beta= 0.70
     Davidson diagonalization with overlap
     ethr =  4.95E-04,  avg # of iterations =  3.2

     negative rho (up, down):  5.851E-05 0.000E+00

     total cpu time spent up to now is     2297.0 secs

     total energy              =   -5053.37679130 Ry
     Harris-Foulkes estimate   =   -5053.57301924 Ry
     estimated scf accuracy    <       1.50102771 Ry

     iteration #  8     ecut=    65.00 Ry     beta= 0.70
     Davidson diagonalization with overlap
     ethr =  3.40E-04,  avg # of iterations =  4.4

     negative rho (up, down):  5.169E-04 0.000E+00

     total cpu time spent up to now is     2504.3 secs

     total energy              =   -5053.29171895 Ry
     Harris-Foulkes estimate   =   -5053.48710683 Ry
     estimated scf accuracy    <       0.91461901 Ry

     iteration #  9     ecut=    65.00 Ry     beta= 0.70
     Davidson diagonalization with overlap
     ethr =  2.07E-04,  avg # of iterations =  8.4

     negative rho (up, down):  8.023E-04 0.000E+00

     total cpu time spent up to now is     2815.6 secs

     total energy              =   -5053.41674297 Ry
     Harris-Foulkes estimate   =   -5053.48959568 Ry
     estimated scf accuracy    <       0.43318483 Ry

     iteration # 10     ecut=    65.00 Ry     beta= 0.70
     Davidson diagonalization with overlap
     ethr =  9.80E-05,  avg # of iterations =  4.1

     negative rho (up, down):  8.800E-04 0.000E+00

     total cpu time spent up to now is     3019.7 secs

     total energy              =   -5053.44106629 Ry
     Harris-Foulkes estimate   =   -5053.48049775 Ry
     estimated scf accuracy    <       0.22624620 Ry

     iteration # 11     ecut=    65.00 Ry     beta= 0.70
     Davidson diagonalization with overlap
     ethr =  5.12E-05,  avg # of iterations =  4.1

     negative rho (up, down):  1.181E-03 0.000E+00

     total cpu time spent up to now is     3241.1 secs

     total energy              =   -5053.44547843 Ry
     Harris-Foulkes estimate   =   -5053.46847166 Ry
     estimated scf accuracy    <       0.11663208 Ry

     iteration # 12     ecut=    65.00 Ry     beta= 0.70
     Davidson diagonalization with overlap
     ethr =  2.64E-05,  avg # of iterations =  7.9

     negative rho (up, down):  1.042E-03 0.000E+00

     total cpu time spent up to now is     3505.4 secs

     total energy              =   -5053.42315696 Ry
     Harris-Foulkes estimate   =   -5053.47003000 Ry
     estimated scf accuracy    <       0.13123805 Ry

     iteration # 13     ecut=    65.00 Ry     beta= 0.70
     Davidson diagonalization with overlap
     ethr =  2.64E-05,  avg # of iterations =  7.0

     negative rho (up, down):  1.164E-03 0.000E+00

     total cpu time spent up to now is     3914.3 secs

     total energy              =   -5053.41894212 Ry
     Harris-Foulkes estimate   =   -5053.50118910 Ry
     estimated scf accuracy    <       0.42049092 Ry

     iteration # 14     ecut=    65.00 Ry     beta= 0.70
     Davidson diagonalization with overlap
     c_bands:  1 eigenvalues not converged
     c_bands:  3 eigenvalues not converged
     c_bands:  3 eigenvalues not converged
     c_bands:  5 eigenvalues not converged
     ethr =  2.64E-05,  avg # of iterations = 16.5

     negative rho (up, down):  1.326E-03 0.000E+00

     total cpu time spent up to now is     4214.7 secs

     total energy              =   -5053.44780008 Ry
     Harris-Foulkes estimate   =   -5053.45851179 Ry
     estimated scf accuracy    <       0.04128638 Ry

     iteration # 15     ecut=    65.00 Ry     beta= 0.70
     Davidson diagonalization with overlap
     ethr =  9.34E-06,  avg # of iterations =  8.1

     negative rho (up, down):  1.361E-03 0.000E+00

     total cpu time spent up to now is     4552.2 secs

     total energy              =   -5053.45639916 Ry
     Harris-Foulkes estimate   =   -5053.45864318 Ry
     estimated scf accuracy    <       0.00898874 Ry

     iteration # 16     ecut=    65.00 Ry     beta= 0.70
     Davidson diagonalization with overlap
     ethr =  2.03E-06,  avg # of iterations = 10.1

     negative rho (up, down):  1.443E-03 0.000E+00

     total cpu time spent up to now is     4894.9 secs

     total energy              =   -5053.45750096 Ry
     Harris-Foulkes estimate   =   -5053.45906627 Ry
     estimated scf accuracy    <       0.00731894 Ry

     iteration # 17     ecut=    65.00 Ry     beta= 0.70
     Davidson diagonalization with overlap
     ethr =  1.66E-06,  avg # of iterations =  2.2

     negative rho (up, down):  1.499E-03 0.000E+00

     total cpu time spent up to now is     5089.1 secs

     total energy              =   -5053.45808168 Ry
     Harris-Foulkes estimate   =   -5053.45835637 Ry
     estimated scf accuracy    <       0.00104094 Ry

     iteration # 18     ecut=    65.00 Ry     beta= 0.70
     Davidson diagonalization with overlap
     ethr =  2.36E-07,  avg # of iterations =  5.5

     negative rho (up, down):  1.542E-03 0.000E+00

     total cpu time spent up to now is     5467.7 secs

     total energy              =   -5053.45832106 Ry
     Harris-Foulkes estimate   =   -5053.45865602 Ry
     estimated scf accuracy    <       0.00159896 Ry

     iteration # 19     ecut=    65.00 Ry     beta= 0.70
     Davidson diagonalization with overlap
     ethr =  2.36E-07,  avg # of iterations =  6.2

     negative rho (up, down):  1.551E-03 0.000E+00

     total cpu time spent up to now is     5685.8 secs

     total energy              =   -5053.45831578 Ry
     Harris-Foulkes estimate   =   -5053.45862726 Ry
     estimated scf accuracy    <       0.00154109 Ry

     iteration # 20     ecut=    65.00 Ry     beta= 0.70
     Davidson diagonalization with overlap
     ethr =  2.36E-07,  avg # of iterations =  4.6

     negative rho (up, down):  1.555E-03 0.000E+00

     total cpu time spent up to now is     5903.8 secs

     total energy              =   -5053.45843524 Ry
     Harris-Foulkes estimate   =   -5053.45852424 Ry
     estimated scf accuracy    <       0.00036722 Ry

     iteration # 21     ecut=    65.00 Ry     beta= 0.70
     Davidson diagonalization with overlap
     ethr =  8.31E-08,  avg # of iterations =  5.8

     negative rho (up, down):  1.569E-03 0.000E+00

     total cpu time spent up to now is     6148.2 secs

     total energy              =   -5053.45845204 Ry
     Harris-Foulkes estimate   =   -5053.45856317 Ry
     estimated scf accuracy    <       0.00068994 Ry

     iteration # 22     ecut=    65.00 Ry     beta= 0.70
     Davidson diagonalization with overlap
     ethr =  8.31E-08,  avg # of iterations =  2.0

     negative rho (up, down):  1.587E-03 0.000E+00

     total cpu time spent up to now is     6344.3 secs

     total energy              =   -5053.45850229 Ry
     Harris-Foulkes estimate   =   -5053.45851818 Ry
     estimated scf accuracy    <       0.00006519 Ry

     iteration # 23     ecut=    65.00 Ry     beta= 0.70
     Davidson diagonalization with overlap
     ethr =  1.47E-08,  avg # of iterations =  4.8

     negative rho (up, down):  1.587E-03 0.000E+00

     total cpu time spent up to now is     6695.1 secs

     total energy              =   -5053.45850620 Ry
     Harris-Foulkes estimate   =   -5053.45853927 Ry
     estimated scf accuracy    <       0.00020763 Ry

     iteration # 24     ecut=    65.00 Ry     beta= 0.70
     Davidson diagonalization with overlap
     ethr =  1.47E-08,  avg # of iterations =  4.5

     negative rho (up, down):  1.591E-03 0.000E+00

     total cpu time spent up to now is     6904.2 secs

     total energy              =   -5053.45851808 Ry
     Harris-Foulkes estimate   =   -5053.45852101 Ry
     estimated scf accuracy    <       0.00001564 Ry

     iteration # 25     ecut=    65.00 Ry     beta= 0.70
     Davidson diagonalization with overlap
     ethr =  3.54E-09,  avg # of iterations =  4.2

     negative rho (up, down):  1.593E-03 0.000E+00

     total cpu time spent up to now is     7250.8 secs

     total energy              =   -5053.45852108 Ry
     Harris-Foulkes estimate   =   -5053.45852408 Ry
     estimated scf accuracy    <       0.00001335 Ry

     iteration # 26     ecut=    65.00 Ry     beta= 0.70
     Davidson diagonalization with overlap
     ethr =  3.02E-09,  avg # of iterations =  2.0

     negative rho (up, down):  1.595E-03 0.000E+00

     total cpu time spent up to now is     7451.4 secs

     total energy              =   -5053.45852199 Ry
     Harris-Foulkes estimate   =   -5053.45852254 Ry
     estimated scf accuracy    <       0.00000266 Ry

     iteration # 27     ecut=    65.00 Ry     beta= 0.70
     Davidson diagonalization with overlap
     ethr =  6.01E-10,  avg # of iterations =  4.2

     negative rho (up, down):  1.599E-03 0.000E+00

     total cpu time spent up to now is     7794.6 secs

     total energy              =   -5053.45852237 Ry
     Harris-Foulkes estimate   =   -5053.45852297 Ry
     estimated scf accuracy    <       0.00000219 Ry

     iteration # 28     ecut=    65.00 Ry     beta= 0.70
     Davidson diagonalization with overlap
     ethr =  4.95E-10,  avg # of iterations =  6.0

     negative rho (up, down):  1.599E-03 0.000E+00

     total cpu time spent up to now is     8093.3 secs

     total energy              =   -5053.45852181 Ry
     Harris-Foulkes estimate   =   -5053.45852386 Ry
     estimated scf accuracy    <       0.00001103 Ry

     iteration # 29     ecut=    65.00 Ry     beta= 0.70
     Davidson diagonalization with overlap
     ethr =  4.95E-10,  avg # of iterations =  5.8

     negative rho (up, down):  1.599E-03 0.000E+00

     total cpu time spent up to now is     8329.1 secs

     total energy              =   -5053.45852269 Ry
     Harris-Foulkes estimate   =   -5053.45852281 Ry
     estimated scf accuracy    <       0.00000050 Ry

     iteration # 30     ecut=    65.00 Ry     beta= 0.70
     Davidson diagonalization with overlap
     ethr =  1.12E-10,  avg # of iterations =  5.0

     negative rho (up, down):  1.599E-03 0.000E+00

     total cpu time spent up to now is     8659.4 secs

     total energy              =   -5053.45852278 Ry
     Harris-Foulkes estimate   =   -5053.45852286 Ry
     estimated scf accuracy    <       0.00000034 Ry

     iteration # 31     ecut=    65.00 Ry     beta= 0.70
     Davidson diagonalization with overlap
     ethr =  7.72E-11,  avg # of iterations =  4.2

     negative rho (up, down):  1.600E-03 0.000E+00

     total cpu time spent up to now is     8869.0 secs

     total energy              =   -5053.45852280 Ry
     Harris-Foulkes estimate   =   -5053.45852283 Ry
     estimated scf accuracy    <       0.00000011 Ry

     iteration # 32     ecut=    65.00 Ry     beta= 0.70
     Davidson diagonalization with overlap
     ethr =  2.40E-11,  avg # of iterations =  4.5

     negative rho (up, down):  1.600E-03 0.000E+00

     total cpu time spent up to now is     9174.6 secs

     total energy              =   -5053.45852282 Ry
     Harris-Foulkes estimate   =   -5053.45852284 Ry
     estimated scf accuracy    <       0.00000011 Ry

     iteration # 33     ecut=    65.00 Ry     beta= 0.70
     Davidson diagonalization with overlap
     ethr =  2.40E-11,  avg # of iterations =  1.9

     negative rho (up, down):  1.600E-03 0.000E+00

     total cpu time spent up to now is     9369.9 secs

     total energy              =   -5053.45852283 Ry
     Harris-Foulkes estimate   =   -5053.45852283 Ry
     estimated scf accuracy    <       0.00000002 Ry

     iteration # 34     ecut=    65.00 Ry     beta= 0.70
     Davidson diagonalization with overlap
     ethr =  5.60E-12,  avg # of iterations =  5.1

     negative rho (up, down):  1.600E-03 0.000E+00

     total cpu time spent up to now is     9669.4 secs

     total energy              =   -5053.45852283 Ry
     Harris-Foulkes estimate   =   -5053.45852283 Ry
     estimated scf accuracy    <       0.00000003 Ry

     iteration # 35     ecut=    65.00 Ry     beta= 0.70
     Davidson diagonalization with overlap
     ethr =  5.60E-12,  avg # of iterations =  1.1

     negative rho (up, down):  1.600E-03 0.000E+00

     total cpu time spent up to now is     9862.5 secs

     total energy              =   -5053.45852283 Ry
     Harris-Foulkes estimate   =   -5053.45852283 Ry
     estimated scf accuracy    <          4.8E-09 Ry

     iteration # 36     ecut=    65.00 Ry     beta= 0.70
     Davidson diagonalization with overlap
     ethr =  1.08E-12,  avg # of iterations =  4.5

     negative rho (up, down):  1.600E-03 0.000E+00

     total cpu time spent up to now is    10246.1 secs

     total energy              =   -5053.45852283 Ry
     Harris-Foulkes estimate   =   -5053.45852283 Ry
     estimated scf accuracy    <       0.00000002 Ry

     iteration # 37     ecut=    65.00 Ry     beta= 0.70
     Davidson diagonalization with overlap
     ethr =  1.08E-12,  avg # of iterations =  5.8

     negative rho (up, down):  1.600E-03 0.000E+00

     total cpu time spent up to now is    10509.1 secs

     total energy              =   -5053.45852283 Ry
     Harris-Foulkes estimate   =   -5053.45852283 Ry
     estimated scf accuracy    <          4.4E-09 Ry

     iteration # 38     ecut=    65.00 Ry     beta= 0.70
     Davidson diagonalization with overlap
     ethr =  1.01E-12,  avg # of iterations =  5.4

     negative rho (up, down):  1.600E-03 0.000E+00

     total cpu time spent up to now is    10679.2 secs

     total energy              =   -5053.45852283 Ry
     Harris-Foulkes estimate   =   -5053.45852283 Ry
     estimated scf accuracy    <       0.00000001 Ry

     iteration # 39     ecut=    65.00 Ry     beta= 0.70
     Davidson diagonalization with overlap
     ethr =  1.01E-12,  avg # of iterations =  4.8

     negative rho (up, down):  1.600E-03 0.000E+00

     total cpu time spent up to now is    10779.6 secs

     total energy              =   -5053.45852283 Ry
     Harris-Foulkes estimate   =   -5053.45852283 Ry
     estimated scf accuracy    <          1.5E-09 Ry

     iteration # 40     ecut=    65.00 Ry     beta= 0.70
     Davidson diagonalization with overlap
     ethr =  3.45E-13,  avg # of iterations =  5.0

     negative rho (up, down):  1.600E-03 0.000E+00

     total cpu time spent up to now is    10925.8 secs

     total energy              =   -5053.45852283 Ry
     Harris-Foulkes estimate   =   -5053.45852283 Ry
     estimated scf accuracy    <          4.5E-09 Ry

     iteration # 41     ecut=    65.00 Ry     beta= 0.70
     Davidson diagonalization with overlap
     ethr =  3.45E-13,  avg # of iterations =  6.1

     negative rho (up, down):  1.600E-03 0.000E+00

     total cpu time spent up to now is    11028.8 secs

     End of self-consistent calculation

          k = 0.0000 0.0000 0.0000 ( 43117 PWs)   bands (ev):

   -60.0275 -59.8068 -59.8019 -59.7995 -59.7971 -59.7927 -59.7832 -59.7758
   -59.7634 -59.7047 -59.7019 -59.6945 -59.6851 -59.6741 -59.6718 -59.6533
   -34.0991 -33.9217 -33.8625 -33.8567 -33.8470 -33.8335 -33.8318 -33.8222
   -33.8112 -33.7893 -33.7776 -33.7551 -33.7494 -33.7263 -33.7236 -33.7202
   -33.7197 -33.7097 -33.7028 -33.6981 -33.6961 -33.6857 -33.6797 -33.6764
   -33.6450 -33.6441 -33.6438 -33.6201 -33.6165 -33.6082 -33.6050 -33.6016
   -33.5930 -33.5899 -33.5727 -33.5718 -33.5684 -33.5554 -33.5414 -33.5410
   -33.5212 -33.5046 -33.4902 -33.4891 -33.4783 -33.4718 -33.4703 -33.4432
   -13.6624 -13.4150 -13.2585 -13.1328 -13.0313 -12.9366 -12.5363 -12.5201
   -12.4637 -12.3372 -12.3217 -12.3060 -12.3055 -12.2406 -12.2080 -12.2075
   -12.1684 -12.1529 -12.0913 -12.0244 -11.9931 -11.9346 -11.9282 -11.9266
   -11.8280 -11.7220 -11.7192 -11.7145 -11.6871 -11.6474 -11.6455 -11.6131
   -11.5572 -11.5429 -11.5271 -11.5116 -11.5029 -11.5013 -11.4535  -0.9186
    -0.9095  -0.5222  -0.5026  -0.3395  -0.3262  -0.2969  -0.2314  -0.2040
    -0.1602  -0.1538  -0.1350  -0.1261  -0.0890  -0.0865  -0.0781   0.0003
     0.0036   0.0467   0.0907   0.2024   0.2224   0.3132   0.3226   0.3590
     0.3758   0.4339   0.5031   0.5245   0.5544   0.6217   0.6476   0.6729
     0.6839   0.7610   0.7820   0.9294   1.0550   1.0674   1.1918   1.2080
     1.2287   1.2798   1.2805   1.3071   1.3621   1.3966   1.4256   1.4784
     1.4799   1.4974   1.6001   1.6219   1.6474   1.6831   1.7489   1.7638
     1.8129   1.8294   1.8878   1.9183   1.9349   1.9514   1.9941   2.0644
     2.0649   2.1271   2.1697   2.1728   2.2495   2.2805   2.3357   2.3474
     2.3751   2.3946   2.4030   2.4374   2.4673   2.4945   2.5375   2.5513
     2.5896   2.6092   2.6712   2.7194   2.7919   2.8329   2.8636   2.8937
     2.9152   2.9541   2.9800   3.0135   3.0692   3.1349   3.1967   3.1981
     3.2673   3.2719   3.3190   3.3218   3.3369   3.3480   3.3947   3.4274
     3.4754   3.5147   3.5362   3.7497   3.8003   3.8613   3.8922   3.9485
     3.9544   4.0038   4.1016   4.1266   6.0556   6.0809   6.1721   6.1873
     6.2817   6.4226   6.5657   6.5835   6.5901   6.6260   7.0285   7.0745
     7.2902   7.3060   7.3255   7.3575   7.4446   7.4687   7.5582   7.5622
     7.6044   7.6187   7.6665   7.7078   7.7080   7.7503   7.8289   7.8372
     7.8438   7.8770   7.8978   7.9012   7.9632   8.0574   8.1972   8.2090
     8.2563   8.2713   8.2738   8.3054   8.3504   8.3596   8.4272   8.4758
     8.5428

          k = 0.0000 0.0000-0.3051 ( 43116 PWs)   bands (ev):

   -60.0275 -59.8068 -59.8019 -59.7995 -59.7971 -59.7927 -59.7832 -59.7758
   -59.7634 -59.7047 -59.7019 -59.6945 -59.6851 -59.6741 -59.6718 -59.6533
   -34.0991 -33.9216 -33.8625 -33.8566 -33.8470 -33.8334 -33.8318 -33.8222
   -33.8111 -33.7893 -33.7778 -33.7539 -33.7499 -33.7263 -33.7236 -33.7203
   -33.7198 -33.7097 -33.7030 -33.6993 -33.6981 -33.6855 -33.6798 -33.6798
   -33.6447 -33.6435 -33.6332 -33.6199 -33.6160 -33.6077 -33.6070 -33.5969
   -33.5954 -33.5910 -33.5779 -33.5736 -33.5718 -33.5639 -33.5405 -33.5335
   -33.5111 -33.5043 -33.4930 -33.4894 -33.4777 -33.4734 -33.4723 -33.4432
   -13.6532 -13.4286 -13.2295 -13.1698 -13.0354 -12.9364 -12.5317 -12.4713
   -12.4644 -12.3933 -12.3184 -12.3036 -12.2946 -12.2387 -12.2069 -12.1758
   -12.1577 -12.1495 -12.1315 -12.0139 -12.0119 -11.9357 -11.9264 -11.9242
   -11.8299 -11.7226 -11.7221 -11.7156 -11.6846 -11.6475 -11.6462 -11.6139
   -11.5516 -11.5429 -11.5295 -11.5117 -11.5051 -11.4912 -11.4594  -0.9185
    -0.9162  -0.5201  -0.5062  -0.3387  -0.3312  -0.3005  -0.2316  -0.2173
    -0.1558  -0.1376  -0.1148  -0.1107  -0.1058  -0.0781  -0.0551  -0.0469
    -0.0285  -0.0028   0.1943   0.1996   0.2249   0.2744   0.3191   0.3507
     0.4444   0.4487   0.4929   0.5046   0.5448   0.5653   0.6082   0.6178
     0.6336   0.8188   0.8538   1.0652   1.0721   1.1118   1.1395   1.2013
     1.2850   1.3316   1.3361   1.3637   1.3895   1.3936   1.4282   1.4439
     1.4594   1.4742   1.4922   1.5145   1.5408   1.5604   1.6225   1.7056
     1.8108   1.8151   1.9435   2.0067   2.0356   2.0643   2.0789   2.1218
     2.1233   2.2476   2.2778   2.2827   2.2890   2.2989   2.3455   2.3707
     2.3817   2.3960   2.4098   2.4257   2.4517   2.5011   2.5028   2.5185
     2.5640   2.6018   2.6050   2.6158   2.6609   2.6843   2.7289   2.7643
     2.8456   2.8778   2.9468   2.9668   3.0697   3.1895   3.2426   3.2577
     3.2608   3.2701   3.3225   3.3444   3.3752   3.4308   3.4637   3.4931
     3.5348   3.5534   3.6043   3.6759   3.7125   3.7160   3.9361   3.9497
     3.9874   4.0661   4.1112   4.1116   6.0578   6.1148   6.2063   6.2156
     6.2498   6.3670   6.6113   6.6415   6.6542   6.6925   6.9330   7.0525
     7.2627   7.2721   7.3516   7.3968   7.4028   7.4206   7.5703   7.5848
     7.5850   7.5893   7.6926   7.7160   7.7605   7.7923   7.7978   7.8262
     7.8271   7.8645   7.8939   7.9015   7.9435   7.9597   8.0040   8.1740
     8.1875   8.2744   8.3009   8.3826   8.4052   8.4227   8.5229   8.5848
     8.6382

          k = 0.0000-0.4047 0.0000 ( 43054 PWs)   bands (ev):

   -60.0275 -59.8068 -59.8019 -59.7995 -59.7971 -59.7927 -59.7832 -59.7758
   -59.7634 -59.7047 -59.7019 -59.6945 -59.6851 -59.6741 -59.6718 -59.6533
   -34.0991 -33.9217 -33.8624 -33.8567 -33.8470 -33.8334 -33.8317 -33.8222
   -33.8112 -33.7893 -33.7776 -33.7551 -33.7494 -33.7264 -33.7236 -33.7201
   -33.7198 -33.7098 -33.7029 -33.6981 -33.6961 -33.6857 -33.6798 -33.6763
   -33.6450 -33.6441 -33.6438 -33.6201 -33.6165 -33.6082 -33.6049 -33.6015
   -33.5930 -33.5899 -33.5727 -33.5718 -33.5684 -33.5554 -33.5414 -33.5410
   -33.5211 -33.5045 -33.4902 -33.4890 -33.4783 -33.4718 -33.4703 -33.4432
   -13.6567 -13.4026 -13.2681 -13.1397 -13.0337 -12.9352 -12.5303 -12.5124
   -12.4568 -12.3270 -12.3225 -12.3160 -12.3083 -12.2371 -12.2162 -12.2099
   -12.1672 -12.1527 -12.0908 -12.0244 -11.9936 -11.9408 -11.9271 -11.9260
   -11.8245 -11.7263 -11.7164 -11.7066 -11.6789 -11.6405 -11.6314 -11.6139
   -11.5545 -11.5460 -11.5345 -11.5284 -11.5118 -11.5042 -11.4756  -0.9165
    -0.9110  -0.5179  -0.4962  -0.3193  -0.3015  -0.2589  -0.2231  -0.2007
    -0.1564  -0.1330  -0.1095  -0.1040  -0.0871  -0.0465  -0.0209  -0.0000
     0.0436   0.0886   0.2146   0.2192   0.2635   0.3362   0.3463   0.4216
     0.5161   0.5492   0.5743   0.5864   0.6974   0.7317   0.7575   0.7979
     0.8227   0.8329   0.8645   0.9177   0.9535   0.9703   1.0321   1.0328
     1.0665   1.0699   1.0791   1.1016   1.1038   1.2427   1.3348   1.3570
     1.3952   1.4671   1.4844   1.6105   1.6331   1.6445   1.6611   1.7149
     1.7457   1.8016   1.8621   1.8999   1.9153   1.9533   1.9747   2.0078
     2.0199   2.0293   2.0590   2.0666   2.0689   2.0998   2.2738   2.3578
     2.4344   2.4552   2.4633   2.4787   2.5106   2.6354   2.6378   2.6745
     2.7239   2.7716   2.8250   2.8300   2.8767   2.8915   2.9062   2.9083
     2.9265   2.9530   2.9841   3.0121   3.1989   3.2011   3.2251   3.2684
     3.3006   3.3108   3.3264   3.3533   3.3736   3.4223   3.4522   3.5076
     3.5662   3.6062   3.6126   3.6360   3.6650   3.7495   3.7706   3.8583
     3.8645   3.8725   3.9144   3.9213   6.0767   6.0912   6.1576   6.1776
     6.3036   6.4000   6.5652   6.5792   6.5835   6.6073   7.0349   7.0736
     7.2924   7.3064   7.3343   7.3803   7.4510   7.4612   7.5392   7.5817
     7.6037   7.6662   7.6928   7.7362   7.7717   7.7779   7.7921   7.8115
     7.8236   7.8741   7.9002   7.9227   7.9641   8.1290   8.2260   8.2390
     8.2929   8.2932   8.3090   8.3264   8.3288   8.3881   8.4309   8.4437
     8.6914

          k = 0.0000-0.4047-0.3051 ( 43112 PWs)   bands (ev):

   -60.0275 -59.8068 -59.8019 -59.7995 -59.7971 -59.7927 -59.7832 -59.7758
   -59.7634 -59.7047 -59.7019 -59.6945 -59.6851 -59.6741 -59.6718 -59.6533
   -34.0991 -33.9216 -33.8624 -33.8566 -33.8470 -33.8334 -33.8317 -33.8221
   -33.8111 -33.7893 -33.7777 -33.7538 -33.7499 -33.7263 -33.7236 -33.7202
   -33.7199 -33.7098 -33.7031 -33.6993 -33.6981 -33.6855 -33.6799 -33.6797
   -33.6447 -33.6435 -33.6333 -33.6199 -33.6160 -33.6077 -33.6070 -33.5970
   -33.5954 -33.5910 -33.5780 -33.5736 -33.5718 -33.5638 -33.5405 -33.5336
   -33.5112 -33.5043 -33.4930 -33.4894 -33.4778 -33.4734 -33.4723 -33.4433
   -13.6481 -13.4160 -13.2323 -13.1834 -13.0374 -12.9350 -12.5254 -12.4677
   -12.4575 -12.3866 -12.3186 -12.3057 -12.2990 -12.2368 -12.2093 -12.1752
   -12.1576 -12.1500 -12.1364 -12.0139 -12.0120 -11.9406 -11.9246 -11.9245
   -11.8270 -11.7260 -11.7165 -11.7078 -11.6798 -11.6407 -11.6314 -11.6140
   -11.5546 -11.5447 -11.5348 -11.5284 -11.5132 -11.5014 -11.4743  -0.9177
    -0.9164  -0.5164  -0.5009  -0.3224  -0.3043  -0.2646  -0.2217  -0.1898
    -0.1555  -0.1174  -0.1083  -0.0889  -0.0884  -0.0606  -0.0286  -0.0099
     0.0219   0.1187   0.2032   0.2130   0.2580   0.3041   0.3504   0.4017
     0.4904   0.5190   0.6270   0.6691   0.7098   0.7267   0.7534   0.7690
     0.7979   0.8331   0.8682   0.8915   0.9073   1.0017   1.0079   1.0404
     1.0712   1.0999   1.1537   1.1538   1.2171   1.2611   1.3107   1.3319
     1.3407   1.4736   1.4884   1.5690   1.6437   1.6564   1.6843   1.7060
     1.7571   1.7631   1.7697   1.8112   1.8460   1.8618   1.9362   1.9444
     2.0157   2.1601   2.1864   2.1873   2.2188   2.2839   2.4011   2.4066
     2.4302   2.4643   2.5039   2.5256   2.5416   2.5612   2.5618   2.5862
     2.5884   2.6162   2.6544   2.6934   2.7376   2.8178   2.8600   2.8837
     2.9227   2.9416   3.1885   3.1916   3.2268   3.2392   3.2674   3.2712
     3.2983   3.3042   3.3322   3.3394   3.3999   3.4291   3.4824   3.5123
     3.5539   3.5701   3.5985   3.6211   3.6276   3.6436   3.8317   3.8517
     3.8945   3.9053   3.9264   3.9272   6.0675   6.1435   6.2156   6.2169
     6.2319   6.3463   6.6099   6.6232   6.6560   6.6960   6.9330   7.0468
     7.2565   7.2566   7.3555   7.3969   7.4371   7.4510   7.5672   7.5772
     7.6601   7.6839   7.7020   7.7378   7.7651   7.7896   7.7969   7.8000
     7.8630   7.8727   7.8763   7.9065   7.9120   7.9635   8.0080   8.2020
     8.2122   8.2764   8.2860   8.4221   8.4578   8.4590   8.5480   8.7426
     8.7625

          k =-0.5000 0.0000 0.0000 ( 43106 PWs)   bands (ev):

   -60.0275 -59.8052 -59.8037 -59.7988 -59.7979 -59.7925 -59.7832 -59.7758
   -59.7634 -59.7038 -59.7028 -59.6944 -59.6851 -59.6736 -59.6723 -59.6532
   -34.0991 -33.9208 -33.8635 -33.8556 -33.8432 -33.8413 -33.8287 -33.8211
   -33.8093 -33.7893 -33.7769 -33.7514 -33.7450 -33.7241 -33.7235 -33.7229
   -33.7212 -33.7092 -33.7016 -33.6998 -33.6858 -33.6825 -33.6795 -33.6604
   -33.6597 -33.6525 -33.6435 -33.6267 -33.6123 -33.6083 -33.5986 -33.5971
   -33.5873 -33.5863 -33.5839 -33.5765 -33.5610 -33.5552 -33.5371 -33.5290
   -33.5232 -33.5159 -33.5066 -33.4886 -33.4788 -33.4775 -33.4630 -33.4593
   -13.5954 -13.2096 -13.0733 -13.0047 -12.9183 -12.9093 -12.8778 -12.7849
   -12.7798 -12.5035 -12.4128 -12.3194 -12.2565 -12.2431 -12.1906 -12.1224
   -12.1121 -12.0176 -11.9911 -11.9873 -11.9670 -11.9661 -11.9548 -11.9283
   -11.8079 -11.7512 -11.6884 -11.6855 -11.6758 -11.6705 -11.6575 -11.6264
   -11.5759 -11.5559 -11.5308 -11.5259 -11.4973 -11.4776 -11.4487  -1.0421
    -0.8443  -0.7750  -0.6706  -0.5772  -0.5685  -0.5128  -0.5113  -0.2521
    -0.2463  -0.1006  -0.0779  -0.0027   0.0052   0.0481   0.0522   0.0736
     0.0781   0.1654   0.1870   0.1979   0.2157   0.3067   0.4031   0.4160
     0.4401   0.4874   0.5226   0.5738   0.6028   0.6331   0.6863   0.7202
     0.8086   0.8220   0.8992   0.9268   0.9773   1.0544   1.0560   1.0954
     1.1419   1.1619   1.2316   1.3102   1.3215   1.3803   1.4153   1.4778
     1.4864   1.5321   1.6108   1.6558   1.6933   1.7021   1.7467   1.7985
     1.8166   1.9157   1.9566   2.0352   2.1070   2.1309   2.1371   2.1832
     2.1870   2.2106   2.2169   2.2274   2.2387   2.2522   2.2727   2.2855
     2.3117   2.3128   2.3547   2.4036   2.4187   2.4420   2.4898   2.4922
     2.5297   2.5543   2.6094   2.6221   2.6434   2.7045   2.7242   2.8416
     2.9397   2.9572   2.9703   3.0598   3.0709   3.1261   3.1445   3.2601
     3.2925   3.3521   3.3608   3.4035   3.4652   3.5431   3.5494   3.5885
     3.7204   3.7347   3.7390   3.7800   3.9138   3.9190   3.9503   3.9533
     3.9741   3.9835   4.0173   4.0206   5.8085   6.1945   6.3209   6.3405
     6.3894   6.4114   6.5873   6.6003   6.6180   6.9825   7.0177   7.2154
     7.2664   7.2952   7.4143   7.4376   7.4682   7.4738   7.4931   7.5157
     7.5503   7.5819   7.6384   7.7095   7.7108   7.7597   7.7622   7.8515
     7.8554   7.8789   7.9044   7.9155   7.9293   7.9309   7.9681   8.0036
     8.0322   8.0322   8.1051   8.1331   8.1392   8.1615   8.1616   8.1749
     8.2498

          k =-0.5000 0.0000-0.3051 ( 43120 PWs)   bands (ev):

   -60.0275 -59.8052 -59.8037 -59.7988 -59.7980 -59.7925 -59.7832 -59.7758
   -59.7634 -59.7038 -59.7028 -59.6944 -59.6851 -59.6736 -59.6723 -59.6532
   -34.0991 -33.9207 -33.8636 -33.8555 -33.8432 -33.8413 -33.8286 -33.8211
   -33.8091 -33.7893 -33.7769 -33.7504 -33.7461 -33.7241 -33.7236 -33.7228
   -33.7221 -33.7092 -33.7017 -33.7000 -33.6871 -33.6852 -33.6797 -33.6595
   -33.6573 -33.6525 -33.6416 -33.6226 -33.6102 -33.6062 -33.6007 -33.5972
   -33.5882 -33.5849 -33.5848 -33.5837 -33.5692 -33.5546 -33.5298 -33.5268
   -33.5232 -33.5171 -33.5024 -33.4879 -33.4803 -33.4786 -33.4646 -33.4596
   -13.5934 -13.1522 -13.1453 -13.0054 -12.9005 -12.8840 -12.8639 -12.8301
   -12.8239 -12.4453 -12.3660 -12.3630 -12.2942 -12.2429 -12.1895 -12.0500
   -12.0343 -12.0329 -12.0286 -12.0126 -11.9885 -11.9870 -11.9663 -11.9307
   -11.8102 -11.7538 -11.6903 -11.6878 -11.6767 -11.6680 -11.6497 -11.6334
   -11.5622 -11.5542 -11.5316 -11.5299 -11.4895 -11.4794 -11.4541  -1.0430
    -0.8577  -0.7672  -0.6788  -0.5801  -0.5702  -0.5234  -0.5194  -0.2622
    -0.2263  -0.1067  -0.0863   0.0062   0.0169   0.0479   0.0601   0.1101
     0.1147   0.1364   0.1510   0.2525   0.2983   0.3384   0.3854   0.4064
     0.4640   0.4994   0.5250   0.5637   0.5867   0.6261   0.6376   0.6859
     0.7121   0.7160   0.8645   0.8989   0.9819   1.0039   1.0665   1.0865
     1.2089   1.2476   1.2711   1.3196   1.3291   1.3668   1.3842   1.4724
     1.4731   1.5073   1.5076   1.5676   1.7493   1.8314   1.8829   1.9849
     1.9869   2.0238   2.0385   2.0917   2.1095   2.1124   2.1209   2.1595
     2.1723   2.1833   2.2058   2.2211   2.2287   2.2472   2.2592   2.2680
     2.2823   2.2837   2.3151   2.3345   2.3777   2.4255   2.4420   2.4502
     2.4892   2.5508   2.5735   2.6312   2.6603   2.7126   2.7161   2.7732
     2.7873   2.8801   2.9417   3.0665   3.1932   3.1980   3.2188   3.2379
     3.2873   3.3180   3.3201   3.3380   3.4961   3.5423   3.5538   3.6290
     3.6952   3.7197   3.7344   3.7483   3.9383   3.9508   3.9703   3.9779
     3.9876   3.9964   4.0042   4.0126   5.8135   6.2215   6.3318   6.3759
     6.4950   6.5167   6.5210   6.5290   6.5767   6.9524   7.0655   7.2161
     7.2765   7.3092   7.4086   7.4367   7.4774   7.4932   7.4935   7.5077
     7.5259   7.5804   7.6500   7.6642   7.7499   7.7708   7.7785   7.8025
     7.8503   7.8683   7.8825   7.8932   7.9414   7.9458   7.9762   8.0048
     8.0315   8.0497   8.0812   8.0906   8.0953   8.1129   8.1769   8.1846
     8.2139

          k =-0.5000-0.4047 0.0000 ( 43128 PWs)   bands (ev):

   -60.0275 -59.8052 -59.8037 -59.7988 -59.7980 -59.7925 -59.7832 -59.7758
   -59.7634 -59.7038 -59.7028 -59.6944 -59.6851 -59.6736 -59.6723 -59.6532
   -34.0990 -33.9208 -33.8635 -33.8555 -33.8431 -33.8412 -33.8287 -33.8210
   -33.8093 -33.7893 -33.7769 -33.7514 -33.7450 -33.7241 -33.7236 -33.7229
   -33.7212 -33.7093 -33.7016 -33.6998 -33.6858 -33.6826 -33.6795 -33.6605
   -33.6597 -33.6525 -33.6435 -33.6267 -33.6123 -33.6084 -33.5987 -33.5971
   -33.5873 -33.5863 -33.5839 -33.5765 -33.5610 -33.5552 -33.5371 -33.5290
   -33.5232 -33.5159 -33.5067 -33.4887 -33.4788 -33.4775 -33.4630 -33.4593
   -13.5931 -13.2000 -13.0672 -12.9836 -12.9277 -12.9229 -12.8774 -12.7907
   -12.7886 -12.4989 -12.4072 -12.3194 -12.2566 -12.2426 -12.1879 -12.1278
   -12.1150 -12.0170 -11.9905 -11.9868 -11.9662 -11.9657 -11.9556 -11.9330
   -11.8083 -11.7469 -11.6885 -11.6864 -11.6657 -11.6619 -11.6558 -11.6280
   -11.5453 -11.5447 -11.5369 -11.5195 -11.5154 -11.5055 -11.4831  -1.0409
    -0.8443  -0.7767  -0.6696  -0.5797  -0.5700  -0.5152  -0.5116  -0.2333
    -0.1445  -0.0838  -0.0756   0.0177   0.0330   0.0933   0.0980   0.1899
     0.1931   0.2039   0.2178   0.2862   0.3235   0.3975   0.5145   0.5236
     0.5731   0.5975   0.6109   0.6328   0.6387   0.6990   0.7382   0.7820
     0.7952   0.8023   0.8225   0.8393   0.8405   0.9244   0.9680   0.9747
     1.0810   1.0841   1.1178   1.1356   1.1511   1.1785   1.2304   1.3288
     1.4255   1.5727   1.6192   1.6420   1.6722   1.6845   1.6926   1.7550
     1.7977   1.8198   1.8576   1.8849   1.8989   1.9263   1.9743   1.9757
     2.0015   2.1302   2.1949   2.2156   2.2242   2.2548   2.2645   2.3210
     2.3220   2.3783   2.3938   2.4135   2.4595   2.5455   2.6024   2.6126
     2.6131   2.6260   2.6360   2.8090   2.8321   2.8561   2.8752   2.9903
     2.9960   3.0261   3.0331   3.1748   3.1801   3.1978   3.2203   3.3084
     3.3367   3.3940   3.4313   3.4983   3.5160   3.5602   3.5613   3.5906
     3.6320   3.6466   3.6662   3.6760   3.7518   3.7526   3.8561   3.8586
     3.9135   3.9213   3.9307   3.9510   5.8025   6.1991   6.3239   6.3485
     6.3966   6.4161   6.5809   6.5906   6.6269   6.9893   7.0118   7.2299
     7.2659   7.3586   7.4482   7.4522   7.4611   7.4749   7.4960   7.5064
     7.5265   7.5670   7.6746   7.7223   7.7553   7.7902   7.8069   7.8513
     7.8541   7.8601   7.8766   7.9150   7.9332   7.9436   7.9772   8.0209
     8.0247   8.0379   8.1089   8.1455   8.1572   8.1695   8.1774   8.1883
     8.2597

          k =-0.5000-0.4047-0.3051 ( 43072 PWs)   bands (ev):

   -60.0275 -59.8052 -59.8037 -59.7988 -59.7980 -59.7925 -59.7832 -59.7758
   -59.7634 -59.7038 -59.7028 -59.6944 -59.6851 -59.6736 -59.6723 -59.6532
   -34.0990 -33.9207 -33.8635 -33.8555 -33.8431 -33.8413 -33.8286 -33.8211
   -33.8091 -33.7893 -33.7768 -33.7503 -33.7460 -33.7241 -33.7237 -33.7228
   -33.7221 -33.7093 -33.7017 -33.7000 -33.6871 -33.6852 -33.6797 -33.6595
   -33.6573 -33.6525 -33.6416 -33.6226 -33.6102 -33.6061 -33.6007 -33.5972
   -33.5882 -33.5849 -33.5848 -33.5836 -33.5692 -33.5546 -33.5298 -33.5268
   -33.5232 -33.5171 -33.5024 -33.4878 -33.4803 -33.4786 -33.4646 -33.4596
   -13.5912 -13.1442 -13.1369 -12.9889 -12.8912 -12.8895 -12.8749 -12.8409
   -12.8386 -12.4444 -12.3655 -12.3604 -12.2905 -12.2424 -12.1877 -12.0496
   -12.0355 -12.0355 -12.0280 -12.0128 -11.9885 -11.9867 -11.9661 -11.9333
   -11.8102 -11.7497 -11.6873 -11.6862 -11.6671 -11.6622 -11.6553 -11.6295
   -11.5450 -11.5446 -11.5352 -11.5211 -11.5101 -11.5043 -11.4822  -1.0418
    -0.8582  -0.7681  -0.6782  -0.5821  -0.5711  -0.5251  -0.5206  -0.2064
    -0.1734  -0.0864  -0.0666   0.0716   0.0833   0.0950   0.0981   0.1055
     0.1628   0.2417   0.2819   0.3794   0.4146   0.4168   0.4446   0.4907
     0.5035   0.5235   0.5431   0.5980   0.6552   0.6833   0.7340   0.7618
     0.7752   0.7979   0.8414   0.8909   0.9137   0.9577   0.9753   0.9898
     1.0140   1.0213   1.0414   1.1347   1.1427   1.1439   1.2321   1.3231
     1.4913   1.5175   1.6150   1.6368   1.6812   1.7082   1.7108   1.7303
     1.7608   1.8732   1.9161   2.0123   2.0581   2.0648   2.0806   2.0896
     2.1110   2.1481   2.1687   2.1870   2.2097   2.2207   2.2452   2.2622
     2.2710   2.3158   2.3654   2.3875   2.4000   2.4087   2.4428   2.6053
     2.6231   2.6986   2.7214   2.7489   2.7547   2.8117   2.8378   2.9424
     3.0227   3.0351   3.0946   3.1254   3.1393   3.1483   3.1666   3.2736
     3.3714   3.4217   3.4433   3.4892   3.5143   3.5898   3.6076   3.6199
     3.6280   3.6504   3.6803   3.6832   3.7653   3.8001   3.8135   3.8387
     3.9253   3.9298   3.9431   3.9444   5.8055   6.2245   6.3332   6.3776
     6.4984   6.5188   6.5230   6.5329   6.5795   6.9574   7.0609   7.2231
     7.2789   7.3512   7.4468   7.4614   7.4762   7.5003   7.5015   7.5180
     7.6178   7.6279   7.6562   7.6813   7.7066   7.7146   7.7800   7.7990
     7.8360   7.8639   7.9058   7.9118   7.9215   7.9568   7.9591   7.9964
     8.0548   8.0687   8.0837   8.0953   8.1283   8.1319   8.1816   8.2218
     8.2222

     the Fermi energy is     5.6972 ev

!    total energy              =   -5053.45852283 Ry
     Harris-Foulkes estimate   =   -5053.45852283 Ry
     estimated scf accuracy    <          2.6E-10 Ry

     total all-electron energy =    -36252.027302 Ry

     The total energy is the sum of the following terms:

     one-electron contribution =   -2294.39762377 Ry
     hartree contribution      =    1318.08244348 Ry
     xc contribution           =    -612.25184338 Ry
     ewald contribution        =   -1972.33580663 Ry
     Dispersion Correction     =      -0.51877761 Ry
     one-center paw contrib.   =   -1491.92695725 Ry
     smearing contrib. (-TS)   =      -0.10995767 Ry

     convergence has been achieved in  41 iterations

     negative rho (up, down):  1.600E-03 0.000E+00

     Forces acting on atoms (cartesian axes, Ry/au):

     atom    1 type  1   force =    -0.00001256   -0.00000425    0.00000953
     atom    2 type  1   force =     0.00000000   -0.00007395    0.00001748
     atom    3 type  1   force =     0.00000000   -0.00000102    0.00002003
     atom    4 type  1   force =     0.00001000    0.00002105   -0.00000004
     atom    5 type  2   force =     0.00000000   -0.00005967    0.00003649
     atom    6 type  2   force =    -0.00001898    0.00000782   -0.00000969
     atom    7 type  2   force =     0.00000193   -0.00003004   -0.00002506
     atom    8 type  2   force =     0.00000000    0.00001681   -0.00002625
     atom    9 type  2   force =     0.00002399    0.00001475    0.00000376
     atom   10 type  2   force =     0.00000000    0.00002546   -0.00000241
     atom   11 type  2   force =     0.00000000   -0.00000171    0.00001808
     atom   12 type  2   force =     0.00000000    0.00002628    0.00001593
     atom   13 type  2   force =     0.00001707    0.00000129   -0.00000009
     atom   14 type  2   force =    -0.00003716    0.00000066    0.00000505
     atom   15 type  1   force =    -0.00001473    0.00001471   -0.00000907
     atom   16 type  1   force =     0.00000000    0.00001800   -0.00007854
     atom   17 type  1   force =     0.00000000   -0.00001999   -0.00000684
     atom   18 type  1   force =    -0.00005030    0.00001618    0.00000890
     atom   19 type  2   force =     0.00000000   -0.00002998   -0.00007633
     atom   20 type  2   force =     0.00001798    0.00000408    0.00000525
     atom   21 type  2   force =    -0.00002970   -0.00002421    0.00007183
     atom   22 type  2   force =    -0.00001748   -0.00000059    0.00001196
     atom   23 type  2   force =     0.00000000    0.00002853    0.00001029
     atom   24 type  2   force =     0.00000000    0.00005183    0.00002501
     atom   25 type  2   force =     0.00000000   -0.00000581    0.00000096
     atom   26 type  2   force =    -0.00001296   -0.00001806    0.00000038
     atom   27 type  2   force =     0.00001564    0.00000877    0.00002844
     atom   28 type  1   force =     0.00001256   -0.00000425    0.00000953
     atom   29 type  1   force =     0.00000000    0.00003653    0.00001820
     atom   30 type  1   force =     0.00000000   -0.00000683    0.00002407
     atom   31 type  1   force =    -0.00001000    0.00002105   -0.00000004
     atom   32 type  2   force =     0.00000000   -0.00002319    0.00001570
     atom   33 type  2   force =     0.00001898    0.00000782   -0.00000969
     atom   34 type  2   force =    -0.00000193   -0.00003004   -0.00002506
     atom   35 type  2   force =     0.00000000   -0.00002747   -0.00003237
     atom   36 type  2   force =    -0.00002399    0.00001475    0.00000376
     atom   37 type  2   force =     0.00000000   -0.00002582    0.00003978
     atom   38 type  2   force =     0.00000000    0.00002372   -0.00004183
     atom   39 type  2   force =     0.00000000    0.00002493    0.00000005
     atom   40 type  2   force =    -0.00001707    0.00000129   -0.00000009
     atom   41 type  2   force =     0.00003716    0.00000066    0.00000505
     atom   42 type  1   force =     0.00001473    0.00001471   -0.00000907
     atom   43 type  1   force =     0.00000000    0.00000525   -0.00004351
     atom   44 type  1   force =     0.00000000    0.00000016   -0.00003892
     atom   45 type  1   force =     0.00005030    0.00001618    0.00000890
     atom   46 type  2   force =     0.00000000    0.00002267   -0.00004409
     atom   47 type  2   force =    -0.00001798    0.00000408    0.00000525
     atom   48 type  2   force =     0.00002970   -0.00002421    0.00007183
     atom   49 type  2   force =     0.00000000   -0.00002190   -0.00001899
     atom   50 type  2   force =     0.00001748   -0.00000059    0.00001196
     atom   51 type  2   force =     0.00000000    0.00002664   -0.00000304
     atom   52 type  2   force =     0.00000000   -0.00002139   -0.00001691
     atom   53 type  2   force =     0.00000000   -0.00001241   -0.00001430
     atom   54 type  2   force =     0.00001296   -0.00001806    0.00000038
     atom   55 type  2   force =    -0.00001564    0.00000877    0.00002844

     Total force =     0.000294     Total SCF correction =     0.000054
     SCF correction compared to forces is large: reduce conv_thr to get better values

     BFGS Geometry Optimization

     bfgs converged in   1 scf cycles and   0 bfgs steps
     (criteria: energy <  1.0E-04 Ry, force <  1.0E-04 Ry/Bohr)

     End of BFGS Geometry Optimization

     Final energy   =   -5053.4585228322 Ry
Begin final coordinates

ATOMIC_POSITIONS (angstrom)
V       -0.001998557   1.660190970   7.529944035
V        1.772323984   2.742322719   9.866789453
V        1.772323984   2.725961323   1.709999938
V        0.004921588   1.626973186   4.065281307
O        1.772323984   2.176629246   7.894205063
O       -0.006339071   2.236663173   9.509839893
O       -0.014589131   2.237305113   2.092213096
O        1.772323984   2.113926563   3.673496788
O        0.025925432   0.025461780   4.051392489
O        1.772323984   4.323435943   1.736627406
O        1.772323984   4.335977595   9.843275451
O        1.772323984   2.312092411  -0.015972345
O       -0.000592081   2.070803027   5.789917837
O       -0.000902859   0.064714742   7.556276030
V       -0.005520141   6.118359223   7.509669052
V        1.772323984   7.095491589   9.813212043
V        1.772323984   7.074258531   1.553915861
V       -0.033154154   6.028620904   4.149673069
O        1.772323984   6.580778863   7.922716203
O       -0.018945357   6.584822005   9.499561181
O        0.157793310   6.587854153   2.295334775
O        0.198754479   4.453230157   4.191272141
O        1.772323984   8.671794119   1.523314355
O        1.772323984   8.682015972   9.930163715
O        1.772323984   6.528327717  -0.076096710
O        0.239243248   6.623817317   5.769078660
O       -0.035165451   4.529829220   7.428241038
V        3.546646512   1.660190970   7.529944035
V        5.316971939   2.759310235   9.881027439
V        5.316971939   2.789970717   1.744118303
V        3.539726367   1.626973186   4.065281307
O        5.316971939   2.175016562   7.899596334
O        3.550987026   2.236663173   9.509839893
O        3.559237085   2.237305113   2.092213096
O        5.316971939   2.146624288   3.699999800
O        3.518722524   0.025461780   4.051392489
O        5.316971939   4.402409230   1.815007910
O        5.316971939   4.355354106   9.842283718
O        5.316971939   2.369430724   0.016725814
O        3.545240033   2.070803027   5.789917837
O        3.545550814   0.064714742   7.556276030
V        3.550168096   6.118359223   7.509669052
V        5.316971939   7.053176024   9.926328814
V        5.316971939   6.914716056   1.782889105
V        3.577802108   6.028620904   4.149673069
O        5.316971939   6.632144052   7.805814705
O        3.563593310   6.584822005   9.499561181
O        3.386854645   6.587854153   2.295334775
O        5.316971939   6.363948868   3.848484302
O        3.345893475   4.453230157   4.191272141
O        5.316971939   8.499810289   1.790286221
O        5.316971939   8.640299662  10.021537213
O        5.316971939   6.548251774   0.068268867
O        3.305404706   6.623817317   5.769078660
O        3.579813406   4.529829220   7.428241038
End final coordinates



     Writing output data file v16o39.save/

     init_run     :     47.64s CPU     48.03s WALL (       1 calls)
     electrons    :  10913.74s CPU  10979.70s WALL (       1 calls)
     forces       :     48.95s CPU     49.45s WALL (       1 calls)

     Called by init_run:
     wfcinit      :     44.15s CPU     44.30s WALL (       1 calls)
     potinit      :      0.74s CPU      0.75s WALL (       1 calls)
     hinit0       :      1.00s CPU      1.03s WALL (       1 calls)

     Called by electrons:
     c_bands      :   9837.77s CPU   9885.06s WALL (      41 calls)
     sum_band     :    943.73s CPU    955.29s WALL (      41 calls)
     v_of_rho     :      7.93s CPU      8.36s WALL (      42 calls)
     newd         :     98.96s CPU    105.56s WALL (      42 calls)
     PAW_pot      :     23.35s CPU     23.38s WALL (      42 calls)
     mix_rho      :      2.13s CPU      2.23s WALL (      41 calls)

     Called by c_bands:
     init_us_2    :     12.38s CPU     12.43s WALL (     672 calls)
     cegterg      :   9798.51s CPU   9845.61s WALL (     328 calls)

     Called by sum_band:
     sum_band:bec :      2.06s CPU      2.08s WALL (     328 calls)
     addusdens    :     92.05s CPU     98.84s WALL (      41 calls)

     Called by *egterg:
     h_psi        :   4100.43s CPU   4118.83s WALL (    2075 calls)
     s_psi        :   1644.97s CPU   1649.56s WALL (    2075 calls)
     g_psi        :      1.98s CPU      1.99s WALL (    1739 calls)
     cdiaghg      :   1040.68s CPU   1055.73s WALL (    2067 calls)

     Called by h_psi:
     h_psi:pot    :   4095.18s CPU   4113.52s WALL (    2075 calls)
     h_psi:calbec :   1836.52s CPU   1844.69s WALL (    2075 calls)
     vloc_psi     :    432.08s CPU    436.98s WALL (    2075 calls)
     add_vuspsi   :   1826.51s CPU   1831.83s WALL (    2075 calls)

     General routines
     calbec       :   2616.44s CPU   2628.16s WALL (    2435 calls)
     fft          :      8.11s CPU      8.75s WALL (     555 calls)
     ffts         :      0.38s CPU      0.40s WALL (      83 calls)
     fftw         :    478.89s CPU    484.32s WALL (  519388 calls)
     interpolate  :      0.77s CPU      0.84s WALL (      42 calls)

     Parallel routines
     fft_scatt_xy :     41.54s CPU     42.08s WALL (  520026 calls)
     fft_scatt_yz :    303.44s CPU    307.49s WALL (  520026 calls)

     PWSCF        :      3h 3m CPU      3h 4m WALL


   This run was terminated on:   3: 3:51  12Jun2024            

=------------------------------------------------------------------------------=
   JOB DONE.
=------------------------------------------------------------------------------=
