
     Program PWSCF v.6.4.1 starts on  8Feb2024 at 20:22:21 

     This program is part of the open-source Quantum ESPRESSO suite
     for quantum simulation of materials; please cite
         "P. Giannozzi et al., J. Phys.:Condens. Matter 21 395502 (2009);
         "P. Giannozzi et al., J. Phys.:Condens. Matter 29 465901 (2017);
          URL http://www.quantum-espresso.org", 
     in publications or presentations arising from this work. More details at
     http://www.quantum-espresso.org/quote

     Parallel version (MPI), running on    32 processors

     MPI processes distributed on     1 nodes
     R & G space division:  proc/nbgrp/npool/nimage =      32
     Reading input from int2.in
Warning: card &IONS ignored
Warning: card     ION_DYNAMICS = "BFGS" ignored
Warning: card     BFGS_NDIM = 2 ignored
Warning: card / ignored

     Current dimensions of program PWSCF are:
     Max number of different atomic species (ntypx) = 10
     Max number of k-points (npk) =  40000
     Max angular momentum in pseudopotentials (lmaxx) =  3

     IMPORTANT: XC functional enforced from input :
     Exchange-correlation      = VDW-DF ( 1  4  4  0 1 0)
     Any further DFT definition will be discarded
     Please, verify this is what you really want

               file V.pbesol-spnl-kjpaw_psl.1.0.0.UPF: wavefunction(s)  3P 3D renormalized
               file O.pbesol-n-kjpaw_psl.1.0.0.UPF: wavefunction(s)  2S 2P renormalized
               file C.pbesol-n-kjpaw_psl.1.0.0.UPF: wavefunction(s)  2S 2P renormalized

     Subspace diagonalization in iterative solution of the eigenvalue problem:
     one sub-group per band group will be used
     ELPA distributed-memory algorithm (size of sub-group:  4*  4 procs)


     Parallelization info
     --------------------
     sticks:   dense  smooth     PW     G-vecs:    dense   smooth      PW
     Min         426     170     47               119505    30230    4446
     Max         427     171     48               119514    30241    4456
     Sum       13635    5445   1525              3824339   967507  142413



     bravais-lattice index     =            0
     lattice parameter (alat)  =      30.2219  a.u.
     unit-cell volume          =   28307.6739 (a.u.)^3
     number of atoms/cell      =          177
     number of atomic types    =            4
     number of electrons       =      1043.00
     number of Kohn-Sham states=          626
     kinetic-energy cutoff     =      40.0000  Ry
     charge density cutoff     =     400.0000  Ry
     convergence threshold     =      1.0E-06
     mixing beta               =       0.4000
     number of iterations used =            8  local-TF  mixing
     Exchange-correlation      = VDW-DF ( 1  4  4  0 1 0)

     celldm(1)=  30.221920  celldm(2)=   0.000000  celldm(3)=   0.000000
     celldm(4)=   0.000000  celldm(5)=   0.000000  celldm(6)=   0.000000

     crystal axes: (cart. coord. in units of alat)
               a(1) = (   1.000000   0.000000   0.000000 )  
               a(2) = (  -0.522247   0.468590   0.000000 )  
               a(3) = (   0.000000   0.000000   2.188492 )  

     reciprocal axes: (cart. coord. in units 2 pi/alat)
               b(1) = (  1.000000  1.114507 -0.000000 )  
               b(2) = (  0.000000  2.134061  0.000000 )  
               b(3) = (  0.000000 -0.000000  0.456936 )  


     PseudoPot. # 1 for V  read from file:
     /home/mpicuntureo/pseudos/V.pbesol-spnl-kjpaw_psl.1.0.0.UPF
     MD5 check sum: d709b3179d4cab0f72010db8785d50db
     Pseudo is Projector augmented-wave + core cor, Zval = 13.0
     Generated using "atomic" code by A. Dal Corso v.6.3
     Shape of augmentation charge: PSQ
     Using radial grid of 1181 points,  6 beta functions with: 
                l(1) =   0
                l(2) =   0
                l(3) =   1
                l(4) =   1
                l(5) =   2
                l(6) =   2
     Q(r) pseudized with 0 coefficients 


     PseudoPot. # 2 for O  read from file:
     /home/mpicuntureo/pseudos/O.pbesol-n-kjpaw_psl.1.0.0.UPF
     MD5 check sum: cb766521a97cf798d01896eaf7ac9a0a
     Pseudo is Projector augmented-wave + core cor, Zval =  6.0
     Generated using "atomic" code by A. Dal Corso v.6.3
     Shape of augmentation charge: PSQ
     Using radial grid of 1095 points,  4 beta functions with: 
                l(1) =   0
                l(2) =   0
                l(3) =   1
                l(4) =   1
     Q(r) pseudized with 0 coefficients 


     PseudoPot. # 3 for C  read from file:
     /home/mpicuntureo/pseudos/C.pbesol-n-kjpaw_psl.1.0.0.UPF
     MD5 check sum: f9b2fe17d1f478429498b05d17159f9e
     Pseudo is Projector augmented-wave + core cor, Zval =  4.0
     Generated using "atomic" code by A. Dal Corso v.6.3
     Shape of augmentation charge: PSQ
     Using radial grid of 1073 points,  4 beta functions with: 
                l(1) =   0
                l(2) =   0
                l(3) =   1
                l(4) =   1
     Q(r) pseudized with 0 coefficients 


     PseudoPot. # 4 for Li read from file:
     /home/mpicuntureo/pseudos/Li.pbesol-sl-kjpaw_psl.1.0.0.UPF
     MD5 check sum: eef8ea5bb9be16d4f57185b44daa939b
     Pseudo is Projector augmented-wave, Zval =  3.0
     Generated using "atomic" code by A. Dal Corso v.6.3
     Shape of augmentation charge: PSQ
     Using radial grid of 1017 points,  4 beta functions with: 
                l(1) =   0
                l(2) =   0
                l(3) =   1
                l(4) =   1
     Q(r) pseudized with 0 coefficients 


     vdW kernel table read from file vdW_kernel_table
     MD5 check sum: 8c4337f4b28e1601c069d7ef7b6561bc

     atomic species   valence    mass     pseudopotential
        V             13.00    50.94150     V ( 1.00)
        O              6.00    15.99940     O ( 1.00)
        C              4.00    12.01100     C ( 1.00)
        Li             3.00     6.94100     Li( 1.00)

     No symmetry found



   Cartesian axes

     site n.     atom                  positions (alat units)
         1           V   tau(   1) = (   0.3488236   0.2752169   0.4940280  )
         2           V   tau(   2) = (   0.1891392   0.1195833   0.4946955  )
         3           V   tau(   3) = (   0.5083718   0.4310180   0.4928987  )
         4           V   tau(   4) = (   0.3649429   0.0993565   0.5757984  )
         5           V   tau(   5) = (  -0.3164579   0.4118546   0.5756480  )
         6           V   tau(   6) = (   0.5243383   0.2556805   0.5760752  )
         7           V   tau(   7) = (   0.0030474   0.4343836   0.5752551  )
         8           V   tau(   8) = (  -0.1561243   0.2783160   0.5756614  )
         9           V   tau(   9) = (   0.6846486   0.1218186   0.5758894  )
        10           V   tau(  10) = (   0.1787440   0.4146456   0.4937179  )
        11           V   tau(  11) = (   0.0197032   0.2580124   0.4944261  )
        12           V   tau(  12) = (   0.8598236   0.1026639   0.4930911  )
        13           V   tau(  13) = (   0.3446764   0.2766074   0.7935382  )
        14           V   tau(  14) = (   0.1855513   0.1203074   0.7935818  )
        15           V   tau(  15) = (   0.5040535   0.4329038   0.7932531  )
        16           V   tau(  16) = (   0.3583853   0.1038073   0.8847648  )
        17           V   tau(  17) = (  -0.3232570   0.4159677   0.8847687  )
        18           V   tau(  18) = (   0.5176742   0.2599708   0.8842246  )
        19           V   tau(  19) = (   0.0096559   0.4303851   0.8845937  )
        20           V   tau(  20) = (  -0.1496819   0.2739781   0.8842420  )
        21           V   tau(  21) = (   0.6913018   0.1178829   0.8842943  )
        22           V   tau(  22) = (   0.1824307   0.4135930   0.7932516  )
        23           V   tau(  23) = (   0.0233590   0.2573874   0.7935856  )
        24           V   tau(  24) = (   0.8639680   0.1012701   0.7927833  )
        25           O   tau(  25) = (   0.2812072   0.1840549   0.5316538  )
        26           O   tau(  26) = (   0.1217767   0.0275522   0.5307544  )
        27           O   tau(  27) = (   0.4405747   0.3401792   0.5310149  )
        28           O   tau(  28) = (   0.4310960   0.1924082   0.5414825  )
        29           O   tau(  29) = (   0.2717124   0.0362735   0.5406003  )
        30           O   tau(  30) = (   0.5905431   0.3483832   0.5411519  )
        31           O   tau(  31) = (   0.6185782   0.0290273   0.5406447  )
        32           O   tau(  32) = (  -0.0628912   0.3413328   0.5403212  )
        33           O   tau(  33) = (   0.7776790   0.1853356   0.5415075  )
        34           O   tau(  34) = (   0.0869670   0.3499679   0.5307878  )
        35           O   tau(  35) = (  -0.0724254   0.1935132   0.5312322  )
        36           O   tau(  36) = (   0.7685388   0.0375355   0.5307634  )
        37           O   tau(  37) = (   0.1715285   0.4203361   0.3927188  )
        38           O   tau(  38) = (   0.0140321   0.2624722   0.3932746  )
        39           O   tau(  39) = (   0.8511118   0.1101968   0.3923244  )
        40           O   tau(  40) = (  -0.0024835   0.4409263   0.6755922  )
        41           O   tau(  41) = (  -0.1615388   0.2854686   0.6759681  )
        42           O   tau(  42) = (   0.6790174   0.1280489   0.6762447  )
        43           O   tau(  43) = (   0.3702769   0.0922767   0.6761034  )
        44           O   tau(  44) = (  -0.3109032   0.4052559   0.6759811  )
        45           O   tau(  45) = (   0.5299359   0.2492052   0.6764170  )
        46           O   tau(  46) = (   0.4450854   0.0326715   0.5320599  )
        47           O   tau(  47) = (  -0.2361758   0.3451789   0.5322324  )
        48           O   tau(  48) = (   0.6043443   0.1886488   0.5328628  )
        49           O   tau(  49) = (   0.2637938   0.3449933   0.5157211  )
        50           O   tau(  50) = (   0.1044711   0.1888718   0.5188884  )
        51           O   tau(  51) = (   0.9452049   0.0325166   0.5123623  )
        52           O   tau(  52) = (   0.3558139   0.2685200   0.3930464  )
        53           O   tau(  53) = (   0.1951311   0.1153151   0.3935566  )
        54           O   tau(  54) = (   0.5171806   0.4235645   0.3921380  )
        55           O   tau(  55) = (   0.2781542   0.1842692   0.8276434  )
        56           O   tau(  56) = (   0.1188825   0.0280749   0.8275786  )
        57           O   tau(  57) = (   0.4374942   0.3404968   0.8269304  )
        58           O   tau(  58) = (   0.4275591   0.1932754   0.8444241  )
        59           O   tau(  59) = (   0.2681718   0.0371239   0.8451364  )
        60           O   tau(  60) = (   0.5869179   0.3494347   0.8440676  )
        61           O   tau(  61) = (   0.6219823   0.0283506   0.8443952  )
        62           O   tau(  62) = (  -0.0594671   0.3406963   0.8447161  )
        63           O   tau(  63) = (   0.7810323   0.1846668   0.8437089  )
        64           O   tau(  64) = (   0.0898409   0.3497761   0.8275337  )
        65           O   tau(  65) = (  -0.0695786   0.1935910   0.8268454  )
        66           O   tau(  66) = (   0.7712266   0.0375228   0.8265798  )
        67           O   tau(  67) = (   0.1850509   0.4094563   0.6924919  )
        68           O   tau(  68) = (   0.0262085   0.2538537   0.6928413  )
        69           O   tau(  69) = (   0.8670523   0.0974156   0.6920097  )
        70           O   tau(  70) = (   0.0239349   0.4176322   0.9832113  )
        71           O   tau(  71) = (  -0.1355365   0.2603060   0.9827620  )
        72           O   tau(  72) = (   0.7060987   0.1048304   0.9828109  )
        73           O   tau(  73) = (   0.3446659   0.1169726   0.9834087  )
        74           O   tau(  74) = (  -0.3377362   0.4283343   0.9834136  )
        75           O   tau(  75) = (   0.5032896   0.2735070   0.9827248  )
        76           O   tau(  76) = (   0.4450756   0.0327164   0.8737017  )
        77           O   tau(  77) = (  -0.2363884   0.3451148   0.8738432  )
        78           O   tau(  78) = (   0.6044243   0.1888517   0.8740276  )
        79           O   tau(  79) = (   0.2636367   0.3452977   0.8313903  )
        80           O   tau(  80) = (   0.1044066   0.1888107   0.8315111  )
        81           O   tau(  81) = (   0.9449348   0.0327205   0.8309423  )
        82           O   tau(  82) = (   0.3419073   0.2799209   0.6927731  )
        83           O   tau(  83) = (   0.1829467   0.1239589   0.6927946  )
        84           O   tau(  84) = (   0.5016850   0.4367728   0.6924835  )
        85           C   tau(  85) = (   0.5219968   0.1166626   0.2197679  )
        86           C   tau(  86) = (   0.2782443   0.2184024   0.2171778  )
        87           C   tau(  87) = (   0.1852206   0.3411130   0.2158338  )
        88           C   tau(  88) = (   0.1265170   0.1979313   0.2160087  )
        89           C   tau(  89) = (   0.0924870   0.4630753   0.2164177  )
        90           C   tau(  90) = (   0.0336559   0.3205104   0.2151443  )
        91           C   tau(  91) = (  -0.0245494   0.1777312   0.2117828  )
        92           C   tau(  92) = (  -0.0587296   0.4425823   0.2195545  )
        93           C   tau(  93) = (  -0.1171889   0.2999316   0.2162407  )
        94           C   tau(  94) = (   0.8243838   0.1574054   0.2124870  )
        95           C   tau(  95) = (   0.3707904   0.0962496   0.2194927  )
        96           C   tau(  96) = (  -0.2099502   0.4221575   0.2197860  )
        97           C   tau(  97) = (  -0.2683377   0.2795580   0.2182247  )
        98           C   tau(  98) = (   0.6732673   0.1369906   0.2172464  )
        99           C   tau(  99) = (   0.2195493   0.0754877   0.2163054  )
       100           C   tau( 100) = (  -0.3611963   0.4018020   0.2166211  )
       101           C   tau( 101) = (   0.5804248   0.2593020   0.2177906  )
       102           C   tau( 102) = (   0.0682844   0.0554001   0.2126374  )
       103           C   tau( 103) = (   0.4876970   0.3814703   0.2121602  )
       104           C   tau( 104) = (   0.4293009   0.2389034   0.2161720  )
       105           C   tau( 105) = (   0.9172306   0.0352210   0.2101822  )
       106           C   tau( 106) = (   0.3368038   0.3614044   0.2132341  )
       107           C   tau( 107) = (   0.7659783   0.0149118   0.2126941  )
       108           C   tau( 108) = (   0.3597566   0.1843148   0.2173783  )
       109           C   tau( 109) = (   0.2669181   0.3069192   0.2160305  )
       110           C   tau( 110) = (   0.2082263   0.1637730   0.2166033  )
       111           C   tau( 111) = (   0.1738875   0.4293471   0.2140421  )
       112           C   tau( 112) = (   0.1151416   0.2864404   0.2162798  )
       113           C   tau( 113) = (   0.0566521   0.1434114   0.2132159  )
       114           C   tau( 114) = (   0.0226658   0.4085571   0.2172536  )
       115           C   tau( 115) = (  -0.0358668   0.2659200   0.2137765  )
       116           C   tau( 116) = (  -0.0942518   0.1233333   0.2104487  )
       117           C   tau( 117) = (   0.4522025   0.0621570   0.2203384  )
       118           C   tau( 118) = (  -0.1285138   0.3880587   0.2193183  )
       119           C   tau( 119) = (  -0.1869551   0.2454573   0.2157696  )
       120           C   tau( 120) = (   0.3009225   0.0417202   0.2189665  )
       121           C   tau( 121) = (  -0.2797952   0.3677415   0.2189359  )
       122           C   tau( 122) = (   0.6618339   0.2251581   0.2183597  )
       123           C   tau( 123) = (   0.1497046   0.0213163   0.2150880  )
       124           C   tau( 124) = (   0.5690253   0.3473996   0.2152809  )
       125           C   tau( 125) = (   0.5106341   0.2048348   0.2182401  )
       126           C   tau( 126) = (   0.9985125   0.0010031   0.2107713  )
       127           C   tau( 127) = (   0.4180124   0.3270865   0.2132155  )
       128           C   tau( 128) = (   0.3251740   0.4493971   0.2116798  )
       129           C   tau( 129) = (   0.7546333   0.1030045   0.2137713  )
       130           C   tau( 130) = (   0.6034230   0.0825740   0.2183114  )
       131           C   tau( 131) = (   0.3511126   0.2650894  -0.0244525  )
       132           C   tau( 132) = (   0.1065713   0.3671500  -0.0240067  )
       133           C   tau( 133) = (   0.5362910   0.0205798  -0.0148787  )
       134           C   tau( 134) = (  -0.0444765   0.3465481  -0.0174067  )
       135           C   tau( 135) = (   0.4435718   0.1428229  -0.0158040  )
       136           C   tau( 136) = (  -0.1371507   0.4687445  -0.0140289  )
       137           C   tau( 137) = (  -0.1955956   0.3261326  -0.0132286  )
       138           C   tau( 138) = (   0.2924850   0.1221669  -0.0219810  )
       139           C   tau( 139) = (  -0.2883567   0.4483250  -0.0165182  )
       140           C   tau( 140) = (   0.6531856   0.3058080  -0.0132160  )
       141           C   tau( 141) = (   0.1996379   0.2445785  -0.0315416  )
       142           C   tau( 142) = (   0.1411038   0.1017274  -0.0250634  )
       143           C   tau( 143) = (  -0.4395526   0.4279678  -0.0194742  )
       144           C   tau( 144) = (   0.5020511   0.2854487  -0.0170732  )
       145           C   tau( 145) = (   0.0480582   0.2243119  -0.0257759  )
       146           C   tau( 146) = (  -0.0101235   0.0816571  -0.0234226  )
       147           C   tau( 147) = (   0.4093594   0.4077130  -0.0230542  )
       148           C   tau( 148) = (  -0.1029055   0.2039388  -0.0188696  )
       149           C   tau( 149) = (   0.8387468   0.0614072  -0.0211135  )
       150           C   tau( 150) = (   0.2581968   0.3875905  -0.0262027  )
       151           C   tau( 151) = (   0.7459801   0.1835462  -0.0143893  )
       152           C   tau( 152) = (   0.6875121   0.0410185  -0.0183751  )
       153           C   tau( 153) = (   0.5947562   0.1631944  -0.0130024  )
       154           C   tau( 154) = (   0.1881658   0.3332026  -0.0285234  )
       155           C   tau( 155) = (   0.0954176   0.4551940  -0.0187232  )
       156           C   tau( 156) = (   0.0367858   0.3125381  -0.0229963  )
       157           C   tau( 157) = (   0.5249541   0.1087461  -0.0135207  )
       158           C   tau( 158) = (  -0.0557368   0.4346798  -0.0146212  )
       159           C   tau( 159) = (  -0.1142176   0.2920454  -0.0159832  )
       160           C   tau( 160) = (   0.3738113   0.0882941  -0.0166923  )
       161           C   tau( 161) = (  -0.2069547   0.4142954  -0.0137803  )
       162           C   tau( 162) = (  -0.2654021   0.2716841  -0.0127659  )
       163           C   tau( 163) = (   0.2813842   0.2103712  -0.0269948  )
       164           C   tau( 164) = (   0.2225736   0.0677540  -0.0215926  )
       165           C   tau( 165) = (  -0.3581879   0.3939191  -0.0159779  )
       166           C   tau( 166) = (   0.1295008   0.1899393  -0.0286955  )
       167           C   tau( 167) = (   0.0712635   0.0474524  -0.0230183  )
       168           C   tau( 168) = (   0.4906860   0.3735516  -0.0198826  )
       169           C   tau( 169) = (  -0.0216049   0.1698098  -0.0229960  )
       170           C   tau( 170) = (   0.9201218   0.0272687  -0.0228643  )
       171           C   tau( 171) = (   0.3396269   0.3533211  -0.0255102  )
       172           C   tau( 172) = (   0.8273446   0.1494847  -0.0177967  )
       173           C   tau( 173) = (   0.7689315   0.0070430  -0.0220112  )
       174           C   tau( 174) = (   0.6761774   0.1290969  -0.0144598  )
       175           C   tau( 175) = (   0.5833960   0.2513561  -0.0135698  )
       176           C   tau( 176) = (   0.4323222   0.2309617  -0.0188486  )
       177           Li  tau( 177) = (   0.1965116   0.2529753   0.1023775  )

     number of k points=     4  gaussian smearing, width (Ry)=  0.1000
                       cart. coord. in units 2pi/alat
        k(    1) = (   0.0000000   0.0000000   0.0000000), wk =   0.5000000
        k(    2) = (   0.0000000  -1.0670305   0.0000000), wk =   0.5000000
        k(    3) = (  -0.5000000  -0.5572533   0.0000000), wk =   0.5000000
        k(    4) = (  -0.5000000  -1.6242837   0.0000000), wk =   0.5000000

     Dense  grid:  3824339 G-vectors     FFT dimensions: ( 200, 135, 432)

     Smooth grid:   967507 G-vectors     FFT dimensions: ( 125,  90, 270)

     Estimated max dynamical RAM per process >     899.67 MB

     Estimated total dynamical RAM >      28.11 GB

     Check: negative core charge=   -0.000004

     Initial potential from superposition of free atoms

     starting charge 1042.97102, renormalised to 1043.00000

     negative rho (up, down):  3.443E-03 0.000E+00


     %%%%%%%%%%%%%%%%%%%%%%%%%%%%%%%%%%%%%%%%%%%%%%%%%%%%%%%%%%%%%%%%%%%%%%%%
     %                                                                      %
     % You are using vdW-DF, which was implemented by the Thonhauser group. %
     % Please cite the following two papers that made this development      %
     % possible and the two reviews that describe the various versions:     %
     %                                                                      %
     %   T. Thonhauser et al., PRL 115, 136402 (2015).                      %
     %   T. Thonhauser et al., PRB 76, 125112 (2007).                       %
     %   K. Berland et al., Rep. Prog. Phys. 78, 066501 (2015).             %
     %   D.C. Langreth et al., J. Phys.: Condens. Matter 21, 084203 (2009). %
     %                                                                      %
     %                                                                      %
     % If you are calculating the stress with vdW-DF, please also cite:     %
     %                                                                      %
     %   R. Sabatini et al., J. Phys.: Condens. Matter 24, 424209 (2012).   %
     %                                                                      %
     %%%%%%%%%%%%%%%%%%%%%%%%%%%%%%%%%%%%%%%%%%%%%%%%%%%%%%%%%%%%%%%%%%%%%%%%


     Starting wfcs are  853 randomized atomic wfcs
     Checking if some PAW data can be deallocated... 

     total cpu time spent up to now is     1199.1 secs

     Self-consistent Calculation

     iteration #  1     ecut=    40.00 Ry     beta= 0.40
     Davidson diagonalization with overlap
     ethr =  1.00E-02,  avg # of iterations =  2.2

     negative rho (up, down):  4.686E-03 0.000E+00

     total cpu time spent up to now is     4555.7 secs

     total energy              =   -9461.44487542 Ry
     Harris-Foulkes estimate   =   -9479.37296331 Ry
     estimated scf accuracy    <      70.33977477 Ry

     iteration #  2     ecut=    40.00 Ry     beta= 0.40
     Davidson diagonalization with overlap
     ethr =  6.74E-03,  avg # of iterations =  1.0

     negative rho (up, down):  8.338E-03 0.000E+00

     total cpu time spent up to now is     6920.2 secs

     total energy              =   -9462.04816515 Ry
     Harris-Foulkes estimate   =   -9465.70180884 Ry
     estimated scf accuracy    <      14.92200225 Ry

     iteration #  3     ecut=    40.00 Ry     beta= 0.40
     Davidson diagonalization with overlap
     ethr =  1.43E-03,  avg # of iterations =  5.2

     negative rho (up, down):  1.702E-02 0.000E+00

     total cpu time spent up to now is    10727.0 secs

     total energy              =   -9462.76237220 Ry
     Harris-Foulkes estimate   =   -9467.53746750 Ry
     estimated scf accuracy    <      21.02986053 Ry

     iteration #  4     ecut=    40.00 Ry     beta= 0.40
     Davidson diagonalization with overlap
     ethr =  1.43E-03,  avg # of iterations =  6.2

     negative rho (up, down):  3.637E-02 0.000E+00

     total cpu time spent up to now is    13329.9 secs

     total energy              =   -9465.15561883 Ry
     Harris-Foulkes estimate   =   -9467.30119289 Ry
     estimated scf accuracy    <       9.27137172 Ry

     iteration #  5     ecut=    40.00 Ry     beta= 0.40
     Davidson diagonalization with overlap
     ethr =  8.89E-04,  avg # of iterations =  3.5

     negative rho (up, down):  4.695E-02 0.000E+00

     total cpu time spent up to now is    15740.9 secs

     total energy              =   -9465.56645624 Ry
     Harris-Foulkes estimate   =   -9465.67687263 Ry
     estimated scf accuracy    <       3.28932321 Ry

     iteration #  6     ecut=    40.00 Ry     beta= 0.40
     Davidson diagonalization with overlap
     ethr =  3.15E-04,  avg # of iterations =  4.2

     negative rho (up, down):  7.982E-03 0.000E+00

     total cpu time spent up to now is    18402.9 secs

     total energy              =   -9465.31174067 Ry
     Harris-Foulkes estimate   =   -9465.88461201 Ry
     estimated scf accuracy    <       5.23852749 Ry

     iteration #  7     ecut=    40.00 Ry     beta= 0.40
     Davidson diagonalization with overlap
     ethr =  3.15E-04,  avg # of iterations =  1.2

     negative rho (up, down):  2.355E-02 0.000E+00

     total cpu time spent up to now is    20772.5 secs

     total energy              =   -9465.05604744 Ry
     Harris-Foulkes estimate   =   -9465.41868194 Ry
     estimated scf accuracy    <       2.22604120 Ry

     iteration #  8     ecut=    40.00 Ry     beta= 0.40
     Davidson diagonalization with overlap
     ethr =  2.13E-04,  avg # of iterations =  4.0

     negative rho (up, down):  1.787E-02 0.000E+00

     total cpu time spent up to now is    23464.1 secs

     total energy              =   -9465.23968036 Ry
     Harris-Foulkes estimate   =   -9465.27899201 Ry
     estimated scf accuracy    <       0.34071248 Ry

     iteration #  9     ecut=    40.00 Ry     beta= 0.40
     Davidson diagonalization with overlap
     c_bands:  5 eigenvalues not converged
     c_bands:  2 eigenvalues not converged
     ethr =  3.27E-05,  avg # of iterations = 17.2

     negative rho (up, down):  2.275E-02 0.000E+00

     total cpu time spent up to now is    26678.5 secs

     total energy              =   -9465.25759481 Ry
     Harris-Foulkes estimate   =   -9465.27019735 Ry
     estimated scf accuracy    <       0.16966446 Ry

     iteration # 10     ecut=    40.00 Ry     beta= 0.40
     Davidson diagonalization with overlap
     c_bands:  5 eigenvalues not converged
     ethr =  1.63E-05,  avg # of iterations = 12.8

     negative rho (up, down):  3.075E-02 0.000E+00

     total cpu time spent up to now is    29238.4 secs

     total energy              =   -9465.24267391 Ry
     Harris-Foulkes estimate   =   -9465.26142356 Ry
     estimated scf accuracy    <       0.11279628 Ry

     iteration # 11     ecut=    40.00 Ry     beta= 0.40
     Davidson diagonalization with overlap
     c_bands:  2 eigenvalues not converged
     c_bands:  5 eigenvalues not converged
     ethr =  1.08E-05,  avg # of iterations = 25.0

     negative rho (up, down):  4.648E-02 0.000E+00

     total cpu time spent up to now is    33403.6 secs

     total energy              =   -9465.23898521 Ry
     Harris-Foulkes estimate   =   -9465.25300830 Ry
     estimated scf accuracy    <       0.07498035 Ry

     iteration # 12     ecut=    40.00 Ry     beta= 0.40
     Davidson diagonalization with overlap
     c_bands:  3 eigenvalues not converged
     ethr =  7.19E-06,  avg # of iterations = 10.5

     negative rho (up, down):  3.001E-02 0.000E+00

     total cpu time spent up to now is    35916.1 secs

     total energy              =   -9465.24365903 Ry
     Harris-Foulkes estimate   =   -9465.24494712 Ry
     estimated scf accuracy    <       0.04129073 Ry

     iteration # 13     ecut=    40.00 Ry     beta= 0.40
     Davidson diagonalization with overlap
     c_bands:  1 eigenvalues not converged
     ethr =  3.96E-06,  avg # of iterations =  7.5

     negative rho (up, down):  2.217E-02 0.000E+00

     total cpu time spent up to now is    38389.8 secs

     total energy              =   -9465.24394145 Ry
     Harris-Foulkes estimate   =   -9465.24479959 Ry
     estimated scf accuracy    <       0.02839560 Ry

     iteration # 14     ecut=    40.00 Ry     beta= 0.40
     Davidson diagonalization with overlap
     ethr =  2.72E-06,  avg # of iterations =  9.2

     negative rho (up, down):  1.952E-02 0.000E+00

     total cpu time spent up to now is    40895.2 secs

     total energy              =   -9465.24225618 Ry
     Harris-Foulkes estimate   =   -9465.24462904 Ry
     estimated scf accuracy    <       0.02144384 Ry

     iteration # 15     ecut=    40.00 Ry     beta= 0.40
     Davidson diagonalization with overlap
     c_bands:  1 eigenvalues not converged
     c_bands:  5 eigenvalues not converged
     ethr =  2.06E-06,  avg # of iterations = 15.5

     negative rho (up, down):  1.646E-02 0.000E+00

     total cpu time spent up to now is    43565.8 secs

     total energy              =   -9465.24253404 Ry
     Harris-Foulkes estimate   =   -9465.24343367 Ry
     estimated scf accuracy    <       0.01720529 Ry

     iteration # 16     ecut=    40.00 Ry     beta= 0.40
     Davidson diagonalization with overlap
     c_bands:  3 eigenvalues not converged
     ethr =  1.65E-06,  avg # of iterations = 11.2

     negative rho (up, down):  2.651E-02 0.000E+00

     total cpu time spent up to now is    46154.3 secs

     total energy              =   -9465.24181401 Ry
     Harris-Foulkes estimate   =   -9465.24300271 Ry
     estimated scf accuracy    <       0.00823912 Ry

     iteration # 17     ecut=    40.00 Ry     beta= 0.40
     Davidson diagonalization with overlap
     c_bands:  2 eigenvalues not converged
     ethr =  7.90E-07,  avg # of iterations =  9.8

     negative rho (up, down):  3.121E-02 0.000E+00

     total cpu time spent up to now is    48551.5 secs

     total energy              =   -9465.24180492 Ry
     Harris-Foulkes estimate   =   -9465.24207976 Ry
     estimated scf accuracy    <       0.00442298 Ry

     iteration # 18     ecut=    40.00 Ry     beta= 0.40
     Davidson diagonalization with overlap
     ethr =  4.24E-07,  avg # of iterations =  3.2

     negative rho (up, down):  4.053E-02 0.000E+00

     total cpu time spent up to now is    50879.0 secs

     total energy              =   -9465.24146734 Ry
     Harris-Foulkes estimate   =   -9465.24189364 Ry
     estimated scf accuracy    <       0.00334084 Ry

     iteration # 19     ecut=    40.00 Ry     beta= 0.40
     Davidson diagonalization with overlap
     ethr =  3.20E-07,  avg # of iterations =  4.0

     negative rho (up, down):  4.988E-02 0.000E+00

     total cpu time spent up to now is    53105.1 secs

     total energy              =   -9465.24141928 Ry
     Harris-Foulkes estimate   =   -9465.24154739 Ry
     estimated scf accuracy    <       0.00204242 Ry

     iteration # 20     ecut=    40.00 Ry     beta= 0.40
     Davidson diagonalization with overlap
     ethr =  1.96E-07,  avg # of iterations =  4.0

     negative rho (up, down):  5.284E-02 0.000E+00

     total cpu time spent up to now is    55379.3 secs

     total energy              =   -9465.24154243 Ry
     Harris-Foulkes estimate   =   -9465.24150436 Ry
     estimated scf accuracy    <       0.00116936 Ry

     iteration # 21     ecut=    40.00 Ry     beta= 0.40
     Davidson diagonalization with overlap
     ethr =  1.12E-07,  avg # of iterations =  3.5

     negative rho (up, down):  5.739E-02 0.000E+00

     total cpu time spent up to now is    57675.4 secs

     total energy              =   -9465.24157979 Ry
     Harris-Foulkes estimate   =   -9465.24157403 Ry
     estimated scf accuracy    <       0.00066590 Ry

     iteration # 22     ecut=    40.00 Ry     beta= 0.40
     Davidson diagonalization with overlap
     ethr =  6.38E-08,  avg # of iterations =  5.2

     negative rho (up, down):  5.565E-02 0.000E+00

     total cpu time spent up to now is    60354.7 secs

     total energy              =   -9465.24158825 Ry
     Harris-Foulkes estimate   =   -9465.24163599 Ry
     estimated scf accuracy    <       0.00021806 Ry

     iteration # 23     ecut=    40.00 Ry     beta= 0.40
     Davidson diagonalization with overlap
     ethr =  2.09E-08,  avg # of iterations =  5.5

     negative rho (up, down):  5.569E-02 0.000E+00

     total cpu time spent up to now is    62926.1 secs

     total energy              =   -9465.24157064 Ry
     Harris-Foulkes estimate   =   -9465.24160446 Ry
     estimated scf accuracy    <       0.00012432 Ry

     iteration # 24     ecut=    40.00 Ry     beta= 0.40
     Davidson diagonalization with overlap
     ethr =  1.19E-08,  avg # of iterations =  3.2

     negative rho (up, down):  5.465E-02 0.000E+00

     total cpu time spent up to now is    65382.8 secs

     total energy              =   -9465.24157090 Ry
     Harris-Foulkes estimate   =   -9465.24157787 Ry
     estimated scf accuracy    <       0.00004656 Ry

     iteration # 25     ecut=    40.00 Ry     beta= 0.40
     Davidson diagonalization with overlap
     ethr =  4.46E-09,  avg # of iterations =  5.0

     negative rho (up, down):  5.431E-02 0.000E+00

     total cpu time spent up to now is    68393.7 secs

     total energy              =   -9465.24157741 Ry
     Harris-Foulkes estimate   =   -9465.24157689 Ry
     estimated scf accuracy    <       0.00001687 Ry

     iteration # 26     ecut=    40.00 Ry     beta= 0.40
     Davidson diagonalization with overlap
     ethr =  1.62E-09,  avg # of iterations =  2.8

     negative rho (up, down):  5.418E-02 0.000E+00

     total cpu time spent up to now is    70798.0 secs

     total energy              =   -9465.24157860 Ry
     Harris-Foulkes estimate   =   -9465.24157839 Ry
     estimated scf accuracy    <       0.00000545 Ry

     iteration # 27     ecut=    40.00 Ry     beta= 0.40
     Davidson diagonalization with overlap
     ethr =  5.23E-10,  avg # of iterations =  5.2

     negative rho (up, down):  5.404E-02 0.000E+00

     total cpu time spent up to now is    73220.6 secs

     total energy              =   -9465.24157905 Ry
     Harris-Foulkes estimate   =   -9465.24157893 Ry
     estimated scf accuracy    <       0.00000250 Ry

     iteration # 28     ecut=    40.00 Ry     beta= 0.40
     Davidson diagonalization with overlap
     ethr =  2.39E-10,  avg # of iterations =  5.0

     negative rho (up, down):  5.371E-02 0.000E+00

     total cpu time spent up to now is    76028.5 secs

     End of self-consistent calculation

          k = 0.0000 0.0000 0.0000 (121045 PWs)   bands (ev):

   -65.8299 -65.8284 -65.8278 -65.8265 -65.8253 -65.8243 -65.7526 -65.7514
   -65.7510 -65.7498 -65.7486 -65.7481 -65.7383 -65.7366 -65.7363 -65.7357
   -65.7340 -65.7339 -65.6740 -65.6729 -65.6728 -65.6725 -65.6717 -65.6714
   -48.6689 -39.8052 -39.8027 -39.8008 -39.7981 -39.7974 -39.7946 -39.7471
   -39.7421 -39.7418 -39.7398 -39.7376 -39.7373 -39.7194 -39.7165 -39.7148
   -39.7145 -39.7120 -39.7117 -39.6758 -39.6742 -39.6680 -39.6436 -39.6423
   -39.6408 -39.6372 -39.6368 -39.6354 -39.6338 -39.6332 -39.6314 -39.6301
   -39.6268 -39.6222 -39.6207 -39.5819 -39.5816 -39.5809 -39.5799 -39.5779
   -39.5758 -39.5657 -39.5649 -39.5645 -39.5642 -39.5538 -39.5534 -39.5459
   -39.5454 -39.5374 -39.5367 -39.5320 -39.5306 -39.5304 -39.5196 -39.5151
   -39.5143 -39.5119 -39.5089 -39.5042 -39.5023 -39.4986 -39.4891 -39.4890
   -39.4647 -39.4647 -39.4634 -39.4557 -39.4556 -39.4494 -39.4493 -39.4248
   -39.4230 -20.2392 -20.0282 -19.4391 -19.4171 -19.3680 -19.3123 -19.3090
   -19.2852 -19.2847 -19.2340 -19.1914 -19.1430 -19.0646 -19.0563 -18.9079
   -18.9073 -18.7919 -18.7915 -18.7812 -18.7799 -18.6732 -18.6720 -18.5662
   -18.5570 -18.4189 -18.3581 -18.3448 -18.3400 -18.3380 -18.2955 -18.2810
   -18.2464 -18.2458 -18.2411 -18.2404 -18.2076 -18.2035 -18.1530 -18.1518
   -18.1485 -18.1358 -18.1285 -18.1276 -18.1067 -18.1059 -18.1042 -18.0881
   -18.0857 -18.0609 -18.0579 -18.0536 -17.9721 -17.9434 -17.9424 -17.6250
   -17.6213 -17.6064 -17.5989 -17.5924 -17.5916 -17.5820 -17.5541 -17.5354
   -17.5345 -17.4879 -17.4866 -17.4517 -17.4510 -17.4401 -17.4085 -17.4079
   -17.3855 -17.3511 -17.3405 -17.3313 -17.3296 -17.3154 -17.3136 -16.9011
   -16.8930 -16.6829 -16.6813 -16.5877 -16.5659 -16.3734 -16.3498 -16.2353
   -16.2068 -16.0153 -15.9955 -15.9910 -15.9792 -15.8564 -15.8151 -15.7780
   -15.7643 -15.6470 -15.5956 -15.5885 -15.5865 -15.3742 -15.3715 -14.0345
   -14.0250 -13.8286 -13.8066 -12.9853 -12.9744 -12.7945 -12.7750 -12.7705
   -12.7632 -12.5910 -12.5481 -12.2665 -12.2529 -12.1598 -12.1480 -12.0541
   -12.0426 -11.9543 -11.9380 -11.8524 -11.8474 -11.6648 -11.6608 -11.6380
   -11.6332 -11.4603 -11.4538 -10.5806 -10.5749 -10.4407 -10.4398 -10.3761
   -10.3750 -10.2351 -10.2306  -9.5118  -9.5021  -9.3114  -9.2996  -9.0336
    -9.0298  -8.8250  -8.8212  -8.4764  -8.4584  -8.4509  -8.2618  -8.2471
    -8.1234  -8.0849  -7.9809  -7.9774  -7.9257  -7.9123  -7.8696  -7.7715
    -7.7633  -7.5120  -7.4794  -7.4338  -7.4219  -7.4098  -7.4048  -7.3285
    -7.3092  -7.2862  -7.2300  -7.2132  -7.1963  -7.1889  -7.1473  -7.0106
    -7.0026  -6.9504  -6.8455  -6.7557  -6.7382  -6.7286  -6.7152  -6.6001
    -6.5978  -6.5640  -6.5565  -6.5252  -6.5194  -6.5133  -6.5084  -6.4698
    -6.4688  -6.4418  -6.4380  -6.4030  -6.3997  -6.3996  -6.3965  -6.3410
    -6.3271  -6.2268  -6.2079  -6.2074  -6.2035  -6.1434  -6.1101  -6.0854
    -6.0815  -6.0749  -6.0709  -6.0177  -5.9841  -5.9804  -5.9617  -5.9448
    -5.9271  -5.9258  -5.8788  -5.8764  -5.8371  -5.8314  -5.8302  -5.7876
    -5.7788  -5.6925  -5.6909  -5.6871  -5.6615  -5.6610  -5.6130  -5.5615
    -5.5587  -5.5492  -5.5316  -5.5303  -5.5293  -5.4322  -5.3871  -5.3837
    -5.3793  -5.3772  -5.3358  -5.3340  -5.3228  -5.3147  -5.2708  -5.2698
    -5.2601  -5.2563  -5.1821  -5.1730  -5.1649  -5.1435  -5.1149  -5.1108
    -5.1078  -5.1063  -5.0347  -5.0306  -4.9946  -4.9899  -4.9113  -4.9069
    -4.8757  -4.8664  -4.8533  -4.7564  -4.7549  -4.7316  -4.7135  -4.7115
    -4.7103  -4.5996  -4.5962  -4.5870  -4.5800  -4.5792  -4.5742  -4.5508
    -4.4309  -4.4053  -4.3683  -4.3664  -4.3150  -4.2868  -4.2747  -4.2726
    -4.2591  -4.2556  -4.2507  -4.1995  -4.1829  -4.1808  -4.1449  -4.1381
    -4.1238  -4.1144  -4.0741  -4.0559  -4.0431  -4.0342  -4.0040  -3.9952
    -3.9581  -3.9423  -3.9240  -3.8929  -3.8737  -3.8627  -3.8620  -3.8346
    -3.8215  -3.8175  -3.7942  -3.7903  -3.7887  -3.7693  -3.7630  -3.7341
    -3.7323  -3.7318  -3.7268  -3.7166  -3.7144  -3.7092  -3.6858  -3.6706
    -3.6620  -3.6556  -3.6530  -3.6096  -3.6004  -3.5961  -3.5874  -3.5853
    -3.5822  -3.5558  -3.5515  -3.5373  -3.4948  -3.4820  -3.4650  -3.4388
    -3.4203  -3.4112  -3.4018  -3.3983  -3.3934  -3.3490  -3.3474  -3.3357
    -3.3065  -3.2932  -3.2884  -3.2123  -3.1906  -3.1801  -3.1658  -3.1628
    -3.1347  -3.1184  -3.1168  -3.1105  -3.0993  -3.0821  -3.0797  -3.0779
    -3.0714  -3.0643  -3.0479  -3.0012  -2.9548  -2.9320  -2.9279  -2.9085
    -2.8799  -2.8793  -2.8600  -2.8588  -2.7762  -2.7660  -2.7644  -2.7387
    -2.7067  -2.7039  -2.6549  -2.6497  -2.6425  -2.6065  -2.5842  -2.5814
    -2.5782  -2.5749  -2.5438  -2.5351  -2.5031  -2.4896  -2.4860  -2.4707
    -2.4605  -2.4466  -2.4452  -2.3790  -2.3776  -2.3549  -2.3093  -2.2867
    -2.2266  -2.2113  -2.1985  -2.1924  -2.1232  -2.1220  -2.0785  -2.0753
    -2.0685  -2.0171  -2.0110  -1.9308  -1.9301  -1.6049  -1.5787  -1.2951
    -1.2483   0.0912   0.1497   0.1725   0.2898   0.3255   0.3283   0.4920
     0.5070   0.5775   0.5781   0.5961   0.5995   0.6952   0.6988   0.7649
     0.7656   1.2101   1.2141   1.2657   1.2695   1.3061   1.3113   1.3120
     1.3973   1.3977   1.3987   1.4632   1.5706   1.5881   1.6025   1.6120
     1.6412   1.7045   1.7133   1.7164   1.7178   1.7319   1.7357   1.7452
     1.7561   1.7831   1.8001   1.8028   1.8227   1.8256   1.8276   1.8914
     1.8915   1.9150   1.9190   1.9307   1.9456   1.9491   1.9589   2.0146
     2.0387   2.0595   2.0631   2.0648   2.0734   2.0844   2.1081   2.1308
     2.1691   2.1831   2.1850   2.1918   2.1930   2.2035   2.2065   2.2670
     2.2698   2.2741   2.3126   2.3203   2.3398   2.3425   2.3934   2.4153
     2.4450   2.4526   2.4635   2.4657   2.5225   2.5272   2.5926   2.6553
     2.7030   2.7260   2.7620   2.7685   2.8658   2.8733   2.8781   2.8819
     2.9073   2.9078   2.9274   2.9393   2.9690   2.9927   3.0739   3.0801
     3.1022   3.1226

          k = 0.0000-1.0670 0.0000 (120926 PWs)   bands (ev):

   -65.8298 -65.8284 -65.8281 -65.8264 -65.8255 -65.8241 -65.7524 -65.7519
   -65.7508 -65.7496 -65.7490 -65.7479 -65.7378 -65.7375 -65.7359 -65.7352
   -65.7350 -65.7333 -65.6737 -65.6733 -65.6725 -65.6723 -65.6722 -65.6711
   -48.6689 -39.8045 -39.8029 -39.8015 -39.7992 -39.7968 -39.7938 -39.7431
   -39.7426 -39.7420 -39.7417 -39.7399 -39.7370 -39.7179 -39.7177 -39.7154
   -39.7151 -39.7127 -39.7098 -39.6804 -39.6656 -39.6638 -39.6477 -39.6438
   -39.6394 -39.6381 -39.6380 -39.6375 -39.6372 -39.6366 -39.6358 -39.6350
   -39.6336 -39.6009 -39.6002 -39.5960 -39.5946 -39.5863 -39.5753 -39.5751
   -39.5720 -39.5703 -39.5682 -39.5621 -39.5616 -39.5487 -39.5485 -39.5484
   -39.5480 -39.5353 -39.5240 -39.5240 -39.5238 -39.5234 -39.5209 -39.5204
   -39.5177 -39.5175 -39.5174 -39.5170 -39.5147 -39.4905 -39.4812 -39.4811
   -39.4667 -39.4667 -39.4658 -39.4637 -39.4570 -39.4348 -39.4343 -39.4341
   -39.4337 -19.9047 -19.7846 -19.7310 -19.7205 -19.7154 -19.5608 -19.5015
   -19.4957 -19.2380 -19.2369 -19.2180 -19.2172 -19.1135 -19.1129 -19.0914
   -19.0907 -18.5477 -18.4515 -18.4471 -18.4245 -18.3742 -18.3443 -18.3296
   -18.3161 -18.3142 -18.2555 -18.2550 -18.2326 -18.2067 -18.1973 -18.1965
   -18.1865 -18.1769 -18.1451 -18.1420 -18.1303 -18.1299 -18.1139 -18.1120
   -18.0761 -18.0578 -18.0572 -18.0394 -18.0371 -18.0253 -18.0109 -18.0037
   -18.0030 -17.9880 -17.9744 -17.9743 -17.9223 -17.8425 -17.8405 -17.8314
   -17.8204 -17.7913 -17.7883 -17.6537 -17.6456 -17.6136 -17.6036 -17.6007
   -17.5910 -17.5741 -17.5724 -17.5632 -17.5547 -17.5533 -17.5347 -17.4963
   -17.4687 -17.4414 -17.4362 -17.4190 -17.4178 -17.4049 -17.4045 -17.3452
   -17.3441 -17.3321 -17.3312 -17.3239 -17.3057 -16.5487 -16.5429 -16.3336
   -16.3270 -16.1114 -16.0760 -15.8956 -15.8626 -15.1188 -15.0730 -14.9749
   -14.9160 -14.8536 -14.8374 -14.8317 -14.7662 -14.6214 -14.6085 -14.4634
   -14.4546 -14.2649 -14.2359 -13.9003 -13.6925 -13.3421 -13.2989 -13.1421
   -13.0841 -13.0519 -13.0403 -12.8437 -12.8288 -12.5853 -12.5486 -12.4633
   -12.4596 -12.3803 -12.3397 -12.2624 -12.2379 -10.7626 -10.7611 -10.5569
   -10.5477 -10.0282 -10.0187  -9.8282  -9.8228  -9.8200  -9.8148  -9.6275
    -9.6003  -9.5445  -9.5397  -9.3397  -9.3351  -9.3089  -9.3064  -9.1817
    -9.1779  -9.1027  -9.1017  -9.0857  -9.0841  -8.9764  -8.9654  -8.8782
    -8.8745  -8.8322  -8.8249  -8.6304  -8.6205  -8.0965  -8.0685  -7.9995
    -7.9137  -7.8835  -7.8493  -7.8411  -7.7851  -7.6554  -7.6527  -7.6066
    -7.4578  -7.4414  -7.3237  -7.2589  -7.2341  -7.2142  -7.1411  -7.1290
    -7.0136  -6.9468  -6.9202  -6.8317  -6.8304  -6.6260  -6.6256  -6.4515
    -6.4489  -6.4277  -6.4267  -6.4086  -6.3872  -6.3804  -6.3361  -6.3357
    -6.3008  -6.2998  -6.2860  -6.2792  -6.2748  -6.2718  -6.1798  -6.1707
    -6.1349  -6.1034  -6.0873  -6.0780  -6.0707  -6.0659  -6.0451  -6.0241
    -5.9492  -5.9381  -5.8942  -5.8580  -5.8521  -5.8265  -5.8261  -5.8203
    -5.8195  -5.8179  -5.8100  -5.7691  -5.6881  -5.6869  -5.6532  -5.6464
    -5.6457  -5.6276  -5.6243  -5.5962  -5.5849  -5.5789  -5.5712  -5.5688
    -5.5515  -5.5484  -5.5168  -5.5123  -5.4972  -5.4527  -5.4513  -5.4001
    -5.3529  -5.3473  -5.3043  -5.2984  -5.2935  -5.2214  -5.2175  -5.1891
    -5.1843  -5.1673  -5.1253  -5.1212  -5.1083  -5.0933  -4.9772  -4.9728
    -4.9381  -4.9194  -4.9165  -4.9119  -4.9099  -4.9063  -4.8239  -4.8170
    -4.8152  -4.7988  -4.7895  -4.7884  -4.7778  -4.7744  -4.7465  -4.7317
    -4.7304  -4.7030  -4.6882  -4.6781  -4.6420  -4.6365  -4.6318  -4.6239
    -4.6024  -4.5801  -4.5780  -4.5633  -4.5533  -4.5485  -4.5302  -4.5281
    -4.4845  -4.4823  -4.4281  -4.4149  -4.3983  -4.3960  -4.3868  -4.3855
    -4.3506  -4.3313  -4.3266  -4.3063  -4.2008  -4.1653  -4.1503  -4.1457
    -4.1395  -4.0923  -4.0789  -4.0760  -3.9785  -3.9773  -3.9197  -3.9156
    -3.9070  -3.8991  -3.8966  -3.8922  -3.8897  -3.8452  -3.8404  -3.8132
    -3.7451  -3.7290  -3.7253  -3.7172  -3.7062  -3.6793  -3.6774  -3.6343
    -3.6327  -3.6292  -3.5906  -3.5901  -3.5603  -3.5264  -3.5206  -3.5187
    -3.4994  -3.4547  -3.4481  -3.4382  -3.4283  -3.4238  -3.3633  -3.3631
    -3.3544  -3.3188  -3.3111  -3.3083  -3.2950  -3.2925  -3.2659  -3.2612
    -3.2309  -3.2118  -3.1798  -3.1729  -3.1719  -3.1586  -3.1559  -3.0678
    -3.0551  -3.0420  -3.0388  -3.0019  -2.9796  -2.9752  -2.9539  -2.9416
    -2.9274  -2.9252  -2.9209  -2.8821  -2.8777  -2.8706  -2.8654  -2.8439
    -2.8295  -2.8246  -2.7505  -2.7492  -2.6778  -2.6725  -2.6664  -2.6347
    -2.6304  -2.6058  -2.6036  -2.5929  -2.5779  -2.5709  -2.5425  -2.5337
    -2.5059  -2.4903  -2.4881  -2.4663  -2.4191  -2.4174  -2.4167  -2.4082
    -2.3955  -2.3666  -2.3402  -2.3312  -2.3305  -2.2674  -2.2628  -2.2474
    -2.1703  -2.1657  -2.1532  -2.1319  -2.1299  -2.1160  -2.0811  -2.0798
    -2.0644  -2.0024  -1.9999  -1.9961  -1.9455  -1.9150  -1.9116  -1.8013
    -1.7125   0.2828   0.2868   0.3329   0.3380   0.3752   0.3761   0.4277
     0.4283   0.6096   0.6616   0.6953   0.7438   0.8114   0.8570   0.9142
     0.9741   0.9776   0.9986   1.1013   1.1340   1.1545   1.1612   1.2385
     1.2394   1.2578   1.3027   1.3153   1.3617   1.3631   1.4102   1.4463
     1.4479   1.4523   1.4548   1.4849   1.5754   1.5773   1.5963   1.6733
     1.7122   1.7191   1.7566   1.7623   1.7689   1.7821   1.7831   1.8215
     1.8296   1.8334   1.8478   1.8489   1.8518   1.8814   1.8838   1.8912
     1.8984   1.9129   1.9146   1.9463   1.9938   2.0158   2.0922   2.0931
     2.1212   2.1423   2.1490   2.1549   2.1884   2.1927   2.1989   2.2089
     2.2512   2.2899   2.2935   2.3198   2.3236   2.3313   2.3342   2.3378
     2.3425   2.3835   2.3970   2.4682   2.4716   2.4914   2.5004   2.5562
     2.5623   2.6147   2.6191   2.8316   2.8921   2.9395   3.0095   3.0246
     3.0270   3.0357   3.0453   3.1013   3.1144   3.1446   3.1465   3.1575
     3.1616   3.1805

          k =-0.5000-0.5573 0.0000 (120880 PWs)   bands (ev):

   -65.8298 -65.8284 -65.8281 -65.8264 -65.8255 -65.8241 -65.7524 -65.7519
   -65.7508 -65.7496 -65.7489 -65.7479 -65.7377 -65.7375 -65.7359 -65.7352
   -65.7350 -65.7333 -65.6737 -65.6733 -65.6725 -65.6723 -65.6721 -65.6711
   -48.6689 -39.8047 -39.8030 -39.8012 -39.7989 -39.7968 -39.7938 -39.7456
   -39.7451 -39.7403 -39.7390 -39.7384 -39.7370 -39.7182 -39.7179 -39.7149
   -39.7147 -39.7128 -39.7099 -39.6798 -39.6701 -39.6685 -39.6531 -39.6402
   -39.6399 -39.6392 -39.6361 -39.6348 -39.6340 -39.6335 -39.6333 -39.6307
   -39.6292 -39.6043 -39.6035 -39.5944 -39.5930 -39.5832 -39.5805 -39.5805
   -39.5803 -39.5670 -39.5661 -39.5656 -39.5653 -39.5557 -39.5438 -39.5360
   -39.5357 -39.5348 -39.5283 -39.5279 -39.5246 -39.5239 -39.5195 -39.5189
   -39.5175 -39.5172 -39.5160 -39.5152 -39.5146 -39.4903 -39.4896 -39.4894
   -39.4702 -39.4616 -39.4614 -39.4613 -39.4562 -39.4356 -39.4351 -39.4328
   -39.4324 -20.0496 -19.9533 -19.8559 -19.7202 -19.2873 -19.2841 -19.2295
   -19.1994 -19.1620 -19.1593 -19.1564 -19.1560 -19.0775 -19.0751 -19.0404
   -19.0400 -19.0397 -18.9824 -18.8550 -18.8468 -18.5337 -18.4756 -18.4386
   -18.4119 -18.3899 -18.3634 -18.3502 -18.3482 -18.3266 -18.2474 -18.2465
   -18.2450 -18.2328 -18.2321 -18.1519 -18.1509 -18.1500 -18.1397 -18.1182
   -18.1174 -18.1160 -18.0890 -18.0872 -18.0820 -18.0514 -18.0511 -18.0369
   -17.9646 -17.9643 -17.9461 -17.9364 -17.9323 -17.6196 -17.6182 -17.6104
   -17.6053 -17.6033 -17.5858 -17.5842 -17.5659 -17.5352 -17.5335 -17.4963
   -17.4811 -17.4748 -17.4692 -17.4422 -17.4418 -17.4403 -17.4360 -17.3910
   -17.3907 -17.3445 -17.3434 -17.3322 -17.3313 -17.3238 -17.3057 -17.2619
   -17.2568 -17.1642 -17.1552 -16.9486 -16.9347 -16.7911 -16.7730 -16.5779
   -16.5650 -16.5618 -16.5591 -16.3412 -16.3363 -15.2773 -15.2600 -15.0866
   -15.0675 -15.0423 -14.8877 -14.8742 -14.8157 -14.6741 -14.6100 -13.9000
   -13.8569 -13.8471 -13.6951 -13.6939 -13.6540 -13.6291 -13.6222 -13.4807
   -13.4190 -12.8642 -12.8562 -12.7767 -12.7589 -12.6672 -12.6375 -12.5656
   -12.5419 -11.4097 -11.4063 -11.2006 -11.1980 -11.0599 -11.0546 -11.0173
   -11.0126 -10.8578 -10.8502 -10.8149 -10.8045 -10.5905 -10.5893 -10.3789
   -10.3765  -9.8057  -9.8032  -9.6010  -9.5961  -9.2064  -9.2027  -9.0016
    -8.9999  -8.6690  -8.6348  -8.4773  -8.4738  -8.4614  -8.4263  -8.2771
    -8.2636  -8.2503  -8.1182  -8.0223  -7.9381  -7.8160  -7.7460  -7.7243
    -7.7207  -7.7194  -7.6350  -7.6222  -7.5121  -7.5100  -7.5063  -7.4386
    -7.4144  -7.3619  -7.3537  -7.2772  -7.2330  -7.2164  -7.1847  -7.1576
    -7.1490  -7.0757  -7.0674  -7.0200  -6.9800  -6.9733  -6.9255  -6.9150
    -6.7745  -6.7605  -6.7175  -6.7138  -6.6573  -6.5047  -6.4985  -6.4900
    -6.4882  -6.4495  -6.4484  -6.4263  -6.4253  -6.3553  -6.3319  -6.3314
    -6.3286  -6.3039  -6.3032  -6.2853  -6.2789  -6.2323  -6.1731  -6.0940
    -6.0428  -6.0190  -6.0041  -5.9826  -5.9400  -5.9285  -5.8789  -5.8718
    -5.8626  -5.8089  -5.8060  -5.7613  -5.7510  -5.7498  -5.6418  -5.6056
    -5.6039  -5.5446  -5.5433  -5.5171  -5.5044  -5.5011  -5.4987  -5.4936
    -5.4734  -5.4439  -5.4317  -5.3963  -5.3956  -5.3892  -5.3851  -5.3358
    -5.3336  -5.2445  -5.2358  -5.2258  -5.2224  -5.1815  -5.1811  -5.1307
    -5.1112  -5.1075  -5.0876  -5.0241  -4.9904  -4.9890  -4.9466  -4.9422
    -4.9227  -4.8979  -4.8872  -4.8820  -4.8714  -4.7953  -4.7940  -4.7919
    -4.7791  -4.7558  -4.7517  -4.7004  -4.6953  -4.6902  -4.6815  -4.6783
    -4.6778  -4.6642  -4.6540  -4.5984  -4.5957  -4.5805  -4.5794  -4.5537
    -4.5523  -4.5131  -4.5090  -4.5030  -4.5000  -4.4961  -4.4815  -4.4674
    -4.4623  -4.4039  -4.3966  -4.3832  -4.3750  -4.3741  -4.3254  -4.2727
    -4.2675  -4.2451  -4.2403  -4.2359  -4.2076  -4.1826  -4.1731  -4.1606
    -4.1431  -4.1179  -4.1103  -4.0892  -4.0374  -4.0259  -4.0075  -4.0006
    -3.9865  -3.9793  -3.9757  -3.9655  -3.9599  -3.9530  -3.9063  -3.9019
    -3.8421  -3.8302  -3.7999  -3.7966  -3.7929  -3.7851  -3.7693  -3.7415
    -3.7349  -3.7345  -3.6982  -3.6925  -3.6884  -3.6569  -3.6302  -3.5776
    -3.5672  -3.4661  -3.4642  -3.3990  -3.3985  -3.3730  -3.3713  -3.3034
    -3.3032  -3.2878  -3.2857  -3.2838  -3.2799  -3.2513  -3.2473  -3.2443
    -3.2387  -3.2213  -3.2159  -3.2103  -3.1153  -3.1103  -3.1069  -3.0961
    -3.0883  -3.0865  -3.0029  -2.9998  -2.9491  -2.9460  -2.9334  -2.9143
    -2.9131  -2.9042  -2.9023  -2.8986  -2.8335  -2.8330  -2.8285  -2.8248
    -2.8078  -2.7740  -2.7731  -2.7503  -2.7473  -2.7435  -2.7151  -2.6569
    -2.6510  -2.6354  -2.6295  -2.6169  -2.6157  -2.5815  -2.5629  -2.5082
    -2.5063  -2.4797  -2.4777  -2.4753  -2.4655  -2.4595  -2.4347  -2.4327
    -2.4121  -2.4088  -2.4030  -2.3987  -2.3847  -2.3018  -2.2998  -2.2797
    -2.2620  -2.2603  -2.2388  -2.2204  -2.2130  -2.1891  -2.1872  -2.1534
    -2.1110  -2.0257  -2.0158  -2.0124  -1.9476  -1.2903  -1.2673  -0.9353
    -0.8985  -0.0250   0.0015   0.2408   0.2514   0.2587   0.2865   0.3373
     0.3381   0.3679   0.3711   0.4711   0.4717   0.5960   0.6693   0.7432
     0.8074   0.9639   1.0338   1.1096   1.1557   1.1967   1.2686   1.2790
     1.3292   1.3316   1.3323   1.3524   1.3913   1.4122   1.4194   1.4245
     1.4284   1.4320   1.4374   1.5244   1.5261   1.6275   1.6361   1.6956
     1.7139   1.7156   1.7164   1.7467   1.7719   1.7818   1.7860   1.8442
     1.8518   1.8601   1.8613   1.8638   1.9061   1.9072   1.9193   1.9532
     1.9834   1.9838   2.0223   2.0234   2.0236   2.1230   2.1336   2.1608
     2.1630   2.1893   2.2186   2.2226   2.2305   2.2562   2.2594   2.2789
     2.2911   2.3005   2.3112   2.3842   2.3849   2.4056   2.4151   2.4235
     2.4239   2.4525   2.4952   2.5394   2.5424   2.6027   2.6085   2.7158
     2.8073   2.8301   2.8823   2.8923   2.8939   2.9059   2.9068   2.9658
     2.9697   3.0243   3.0344   3.0475   3.0756   3.1856   3.2024   3.2136
     3.2422   3.2502

          k =-0.5000-1.6243 0.0000 (120890 PWs)   bands (ev):

   -65.8299 -65.8284 -65.8278 -65.8265 -65.8253 -65.8242 -65.7526 -65.7514
   -65.7510 -65.7498 -65.7486 -65.7481 -65.7383 -65.7366 -65.7363 -65.7357
   -65.7340 -65.7338 -65.6739 -65.6729 -65.6728 -65.6725 -65.6717 -65.6714
   -48.6689 -39.8049 -39.8030 -39.8008 -39.7980 -39.7973 -39.7946 -39.7445
   -39.7429 -39.7407 -39.7404 -39.7388 -39.7386 -39.7191 -39.7168 -39.7148
   -39.7145 -39.7119 -39.7116 -39.6745 -39.6729 -39.6618 -39.6438 -39.6426
   -39.6387 -39.6381 -39.6380 -39.6364 -39.6358 -39.6348 -39.6341 -39.6309
   -39.6303 -39.6233 -39.6220 -39.5801 -39.5799 -39.5795 -39.5778 -39.5743
   -39.5682 -39.5648 -39.5641 -39.5632 -39.5630 -39.5565 -39.5563 -39.5459
   -39.5413 -39.5411 -39.5403 -39.5397 -39.5313 -39.5312 -39.5225 -39.5157
   -39.5149 -39.5116 -39.5090 -39.5042 -39.5018 -39.4865 -39.4864 -39.4835
   -39.4710 -39.4647 -39.4646 -39.4549 -39.4548 -39.4506 -39.4506 -39.4242
   -39.4232 -20.0717 -19.9726 -19.8648 -19.7577 -19.3823 -19.3778 -19.2616
   -19.2467 -19.1684 -19.1385 -19.0139 -19.0116 -18.9573 -18.9172 -18.8745
   -18.8739 -18.8344 -18.8337 -18.8004 -18.7955 -18.7502 -18.7493 -18.7120
   -18.7108 -18.3577 -18.3348 -18.3283 -18.3268 -18.2508 -18.2504 -18.2392
   -18.2376 -18.2345 -18.2021 -18.1616 -18.1610 -18.1463 -18.1446 -18.1269
   -18.1242 -18.1212 -18.1162 -18.1087 -18.1065 -18.0945 -18.0915 -18.0629
   -18.0623 -18.0515 -17.9745 -17.9648 -17.9641 -17.6218 -17.6166 -17.6136
   -17.6077 -17.5934 -17.5919 -17.5838 -17.5823 -17.5748 -17.5747 -17.5277
   -17.5266 -17.5060 -17.5051 -17.4300 -17.4294 -17.4188 -17.4183 -17.4149
   -17.4011 -17.3552 -17.3538 -17.3518 -17.3404 -17.3317 -17.3300 -17.3153
   -17.3135 -17.2670 -17.2527 -17.0487 -17.0310 -16.5034 -16.4676 -16.2897
   -16.2651 -16.2633 -16.2473 -16.0518 -16.0501 -15.1707 -15.1445 -15.1269
   -15.1161 -14.9691 -14.9228 -14.9129 -14.9093 -14.8838 -14.7956 -14.7552
   -14.6632 -14.5885 -14.5341 -13.8988 -13.6935 -13.5255 -13.4807 -13.3231
   -13.2642 -12.2466 -12.2408 -12.1297 -12.1134 -12.0411 -12.0327 -12.0311
   -12.0291 -11.9153 -11.9051 -11.8260 -11.8242 -11.1408 -11.1400 -11.0269
   -11.0246 -10.9350 -10.9296 -10.8173 -10.8164 -10.0405 -10.0370  -9.9546
    -9.9497  -9.8395  -9.8332  -9.7521  -9.7417  -9.7404  -9.7367  -9.5511
    -9.5380  -9.0303  -9.0231  -8.8250  -8.8142  -8.5627  -8.5215  -8.4188
    -8.4149  -8.3756  -8.3093  -8.2781  -8.2129  -8.2056  -8.1465  -7.7473
    -7.5489  -7.2461  -7.2225  -7.2141  -7.1876  -7.1521  -7.0700  -7.0660
    -7.0388  -7.0246  -7.0221  -7.0137  -6.9991  -6.9808  -6.9786  -6.9641
    -6.9124  -6.9104  -6.9032  -6.8657  -6.8647  -6.8129  -6.8076  -6.7634
    -6.7038  -6.7020  -6.6856  -6.6670  -6.5958  -6.5793  -6.5758  -6.5687
    -6.5436  -6.5055  -6.5042  -6.4626  -6.4600  -6.4329  -6.4316  -6.3891
    -6.3857  -6.3678  -6.3352  -6.2095  -6.2088  -6.2012  -6.1950  -6.0740
    -6.0705  -6.0368  -5.9451  -5.9104  -5.9047  -5.9041  -5.8540  -5.8456
    -5.8236  -5.8224  -5.7966  -5.7579  -5.7225  -5.7211  -5.7092  -5.7053
    -5.6828  -5.6803  -5.6791  -5.6741  -5.6649  -5.6608  -5.6447  -5.5965
    -5.5715  -5.5542  -5.5469  -5.5433  -5.5421  -5.5107  -5.5093  -5.4817
    -5.4812  -5.3597  -5.3489  -5.3419  -5.3352  -5.3036  -5.2684  -5.2580
    -5.2492  -5.2193  -5.2155  -5.1117  -5.1076  -5.0403  -5.0299  -5.0191
    -4.9947  -4.9733  -4.9728  -4.9129  -4.8961  -4.8950  -4.8714  -4.8562
    -4.8542  -4.8112  -4.7567  -4.7400  -4.7385  -4.7318  -4.7298  -4.7207
    -4.7188  -4.6520  -4.6498  -4.5712  -4.5444  -4.5345  -4.5150  -4.5106
    -4.4982  -4.4904  -4.4414  -4.4132  -4.4124  -4.3711  -4.3558  -4.3519
    -4.2980  -4.2697  -4.2207  -4.2194  -4.2094  -4.1981  -4.1710  -4.1588
    -4.1477  -4.1309  -4.1255  -4.1226  -4.0648  -4.0573  -4.0488  -4.0471
    -4.0397  -4.0215  -4.0104  -4.0058  -3.9862  -3.9689  -3.9530  -3.9413
    -3.9024  -3.9006  -3.8995  -3.8961  -3.8950  -3.8124  -3.8049  -3.7719
    -3.7697  -3.7676  -3.7662  -3.7337  -3.7307  -3.7131  -3.7112  -3.7105
    -3.6897  -3.6887  -3.6873  -3.6387  -3.6333  -3.6302  -3.6095  -3.5932
    -3.5678  -3.5515  -3.5491  -3.5159  -3.5009  -3.5000  -3.4891  -3.4541
    -3.4306  -3.4188  -3.4082  -3.3498  -3.3168  -3.3027  -3.3014  -3.2979
    -3.2537  -3.2075  -3.2065  -3.1955  -3.1949  -3.1615  -3.1584  -3.1385
    -3.1343  -3.0943  -3.0935  -3.0655  -3.0646  -3.0419  -2.9956  -2.9639
    -2.9464  -2.9032  -2.7926  -2.7877  -2.7859  -2.7804  -2.7712  -2.7504
    -2.7145  -2.6881  -2.6876  -2.6815  -2.6712  -2.6573  -2.6232  -2.6176
    -2.6163  -2.6128  -2.5993  -2.5950  -2.5904  -2.5896  -2.5766  -2.5752
    -2.5629  -2.4967  -2.4837  -2.4769  -2.4767  -2.4725  -2.4698  -2.4691
    -2.4623  -2.4547  -2.4530  -2.4183  -2.3478  -2.3388  -2.3107  -2.3070
    -2.2557  -2.2316  -2.2109  -2.1847  -2.1710  -2.1618  -2.1335  -2.1317
    -2.1113  -2.1021  -2.0513  -2.0461  -2.0354  -1.9906  -1.9867  -1.9234
    -1.9215   0.1306   0.1315   0.1664   0.3037   0.5309   0.5424   0.6318
     0.6326   0.6920   0.6976   0.7462   0.7468   0.8643   0.9742   1.0541
     1.1708   1.2253   1.2363   1.2449   1.2504   1.2713   1.2767   1.3020
     1.3100   1.3115   1.3438   1.3578   1.3663   1.3955   1.4111   1.4121
     1.4210   1.4386   1.5762   1.6020   1.6142   1.6300   1.6384   1.6458
     1.6527   1.7071   1.7091   1.7336   1.7816   1.7839   1.7918   1.7969
     1.8057   1.8070   1.8179   1.8208   1.8309   1.8663   1.8797   1.8815
     1.9054   1.9204   1.9235   1.9265   1.9906   1.9943   2.0513   2.0580
     2.0642   2.0677   2.1149   2.1679   2.1701   2.1839   2.1971   2.2384
     2.2404   2.3023   2.3048   2.3910   2.3988   2.4008   2.4481   2.4489
     2.5064   2.6094   2.6159   2.6901   2.7052   2.7134   2.7453   2.7730
     2.8073   2.8227   2.8680   2.8708   2.8807   2.8836   2.9128   2.9213
     2.9319   2.9965   3.0121   3.0411   3.0445   3.0834   3.0866   3.0938
     3.1144   3.1506

     the Fermi energy is    -0.5869 ev

!    total energy              =   -9465.24158023 Ry
     Harris-Foulkes estimate   =   -9465.24157938 Ry
     estimated scf accuracy    <       0.00000061 Ry

     total all-electron energy =    -61743.751750 Ry

     The total energy is the sum of the following terms:

     one-electron contribution =  -91331.47179700 Ry
     hartree contribution      =   45882.34673720 Ry
     xc contribution           =   -1395.83806368 Ry
     ewald contribution        =   40278.52002854 Ry
     one-center paw contrib.   =   -2897.44155910 Ry
     smearing contrib. (-TS)   =      -1.35692619 Ry

     convergence has been achieved in  28 iterations

     Writing output data file int2.save/

     init_run     :   1185.68s CPU   1197.02s WALL (       1 calls)
     electrons    :  74214.39s CPU  74829.88s WALL (       1 calls)

     Called by init_run:
     wfcinit      :   1162.45s CPU   1172.27s WALL (       1 calls)
     potinit      :      6.63s CPU      7.19s WALL (       1 calls)
     hinit0       :      5.30s CPU      5.37s WALL (       1 calls)

     Called by electrons:
     c_bands      :  65842.72s CPU  66276.05s WALL (      28 calls)
     sum_band     :   7054.62s CPU   7154.47s WALL (      28 calls)
     v_of_rho     :    249.08s CPU    278.27s WALL (      29 calls)
     newd         :    771.66s CPU    814.61s WALL (      29 calls)
     PAW_pot      :     53.40s CPU     53.50s WALL (      29 calls)
     mix_rho      :    250.89s CPU    261.96s WALL (      28 calls)

     Called by c_bands:
     init_us_2    :     38.82s CPU     39.01s WALL (     228 calls)
     cegterg      :  65732.77s CPU  66165.06s WALL (     115 calls)

     Called by sum_band:
     sum_band:bec :      4.94s CPU      4.96s WALL (     112 calls)
     addusdens    :    914.80s CPU    964.47s WALL (      28 calls)

     Called by *egterg:
     h_psi        :  27153.25s CPU  27393.74s WALL (     892 calls)
     s_psi        :  11467.65s CPU  11500.76s WALL (     892 calls)
     g_psi        :      4.49s CPU      4.51s WALL (     773 calls)
     cdiaghg      :   5049.28s CPU   5109.12s WALL (     888 calls)

     Called by h_psi:
     h_psi:pot    :  27144.95s CPU  27373.97s WALL (     892 calls)
     h_psi:calbec :  12056.67s CPU  12099.21s WALL (     892 calls)
     vloc_psi     :   3224.81s CPU   3377.17s WALL (     892 calls)
     add_vuspsi   :  11863.44s CPU  11897.58s WALL (     892 calls)

     General routines
     calbec       :  17351.53s CPU  17413.07s WALL (    1004 calls)
     fft          :    270.93s CPU    277.98s WALL (    1825 calls)
     ffts         :    153.42s CPU    163.75s WALL (    9764 calls)
     fftw         :   3403.66s CPU   3580.36s WALL (  387156 calls)
     interpolate  :      3.29s CPU      3.41s WALL (      29 calls)

     Parallel routines
     fft_scatt_xy :    434.14s CPU    439.40s WALL (  398745 calls)
     fft_scatt_yz :   1912.60s CPU   2084.60s WALL (  398745 calls)

     PWSCF        :     20h56m CPU     21h 7m WALL


   This run was terminated on:  17:29:41   9Feb2024            

=------------------------------------------------------------------------------=
   JOB DONE.
=------------------------------------------------------------------------------=
