
     Program PWSCF v.6.4.1 starts on 17May2024 at 21:44:26 

     This program is part of the open-source Quantum ESPRESSO suite
     for quantum simulation of materials; please cite
         "P. Giannozzi et al., J. Phys.:Condens. Matter 21 395502 (2009);
         "P. Giannozzi et al., J. Phys.:Condens. Matter 29 465901 (2017);
          URL http://www.quantum-espresso.org", 
     in publications or presentations arising from this work. More details at
     http://www.quantum-espresso.org/quote

     Parallel version (MPI), running on    32 processors

     MPI processes distributed on     1 nodes
     R & G space division:  proc/nbgrp/npool/nimage =      32
     Reading input from v2o5.vc-rlx.in

     Current dimensions of program PWSCF are:
     Max number of different atomic species (ntypx) = 10
     Max number of k-points (npk) =  40000
     Max angular momentum in pseudopotentials (lmaxx) =  3

     -------------------------------------------------
     Parameters for Dispersion (Grimme-D2) Correction:
     -------------------------------------------------
       atom      VdW radius       C_6     

        V          2.952        374.666
        O          2.536         24.284

     Subspace diagonalization in iterative solution of the eigenvalue problem:
     one sub-group per band group will be used
     ELPA distributed-memory algorithm (size of sub-group:  4*  4 procs)


     Parallelization info
     --------------------
     sticks:   dense  smooth     PW     G-vecs:    dense   smooth      PW
     Min          16      16      4                  846      846     124
     Max          17      17      5                  863      863     137
     Sum         535     535    155                27379    27379    4199



     bravais-lattice index     =            8
     lattice parameter (alat)  =       6.6827  a.u.
     unit-cell volume          =    1233.5773 (a.u.)^3
     number of atoms/cell      =           14
     number of atomic types    =            2
     number of electrons       =       112.00
     number of Kohn-Sham states=           56
     kinetic-energy cutoff     =      30.0000  Ry
     charge density cutoff     =     120.0000  Ry
     convergence threshold     =      1.0E-10
     mixing beta               =       0.7000
     number of iterations used =            8  plain     mixing
     Exchange-correlation      = PBE ( 1  4  3  4 0 0)
     nstep                     =          500


     celldm(1)=   6.682682  celldm(2)=   1.263659  celldm(3)=   3.271025
     celldm(4)=   0.000000  celldm(5)=   0.000000  celldm(6)=   0.000000

     crystal axes: (cart. coord. in units of alat)
               a(1) = (   1.000000   0.000000   0.000000 )  
               a(2) = (   0.000000   1.263659   0.000000 )  
               a(3) = (   0.000000   0.000000   3.271025 )  

     reciprocal axes: (cart. coord. in units 2 pi/alat)
               b(1) = (  1.000000  0.000000  0.000000 )  
               b(2) = (  0.000000  0.791352  0.000000 )  
               b(3) = (  0.000000  0.000000  0.305715 )  


     PseudoPot. # 1 for V  read from file:
     /home/mpicuntureo/pseudos/v.nc.upf
     MD5 check sum: 40fb93c06b4f9d8c28c5ccd071294a04
     Pseudo is Norm-conserving + core correction, Zval = 13.0
     Generated using ONCVPSP code by D. R. Hamann
     Using radial grid of 1536 points,  6 beta functions with: 
                l(1) =   0
                l(2) =   0
                l(3) =   1
                l(4) =   1
                l(5) =   2
                l(6) =   2

     PseudoPot. # 2 for O  read from file:
     /home/mpicuntureo/pseudos/o.nc.upf
     MD5 check sum: 3e3f909f7470e8921608ab6b1f57bbae
     Pseudo is Norm-conserving + core correction, Zval =  6.0
     Generated using ONCVPSP code by D. R. Hamann
     Using radial grid of  936 points,  5 beta functions with: 
                l(1) =   0
                l(2) =   0
                l(3) =   1
                l(4) =   1
                l(5) =   2

     atomic species   valence    mass     pseudopotential
        V             13.00    50.94150     V ( 1.00)
        O              6.00    15.99940     O ( 1.00)

      8 Sym. Ops., with inversion, found ( 4 have fractional translation)



   Cartesian axes

     site n.     atom                  positions (alat units)
         1           V   tau(   1) = (   0.0000000   0.4838420   2.1198804  )
         2           V   tau(   2) = (   0.5000000   0.7798175   2.7866567  )
         3           V   tau(   3) = (   0.5000000   0.7798175   0.4843680  )
         4           V   tau(   4) = (   0.0000000   0.4838420   1.1511443  )
         5           O   tau(   5) = (   0.5000000   0.6221939   2.2285187  )
         6           O   tau(   6) = (   0.0000000   0.6414656   2.6780184  )
         7           O   tau(   7) = (   0.0000000   0.6414656   0.5930063  )
         8           O   tau(   8) = (   0.5000000   0.6221939   1.0425060  )
         9           O   tau(   9) = (   0.0000000   0.0364742   1.1584929  )
        10           O   tau(  10) = (   0.5000000   1.2271853   0.4770194  )
        11           O   tau(  11) = (   0.5000000   1.2271853   2.7940053  )
        12           O   tau(  12) = (   0.5000000   0.6433842   0.0000000  )
        13           O   tau(  13) = (   0.0000000   0.6202753   1.6355124  )
        14           O   tau(  14) = (   0.0000000   0.0364742   2.1125318  )

     number of k points=     4
                       cart. coord. in units 2pi/alat
        k(    1) = (   0.0000000   0.0000000   0.0000000), wk =   0.2222222
        k(    2) = (   0.0000000   0.2637841   0.0000000), wk =   0.4444444
        k(    3) = (   0.3333333   0.0000000   0.0000000), wk =   0.4444444
        k(    4) = (   0.3333333   0.2637841   0.0000000), wk =   0.8888889

     Dense  grid:    27379 G-vectors     FFT dimensions: (  24,  30,  80)

     Estimated max dynamical RAM per process >       6.10 MB

     Estimated total dynamical RAM >     195.13 MB

     Check: negative core charge=   -0.001944

     Initial potential from superposition of free atoms

     starting charge  111.99579, renormalised to  112.00000
     Starting wfcs are   80 randomized atomic wfcs

     total cpu time spent up to now is        0.4 secs

     Self-consistent Calculation

     iteration #  1     ecut=    30.00 Ry     beta= 0.70
     Davidson diagonalization with overlap
     ethr =  1.00E-02,  avg # of iterations =  2.0

     total cpu time spent up to now is        0.8 secs

     total energy              =    -908.29120516 Ry
     Harris-Foulkes estimate   =    -914.09235981 Ry
     estimated scf accuracy    <       7.42086809 Ry

     iteration #  2     ecut=    30.00 Ry     beta= 0.70
     Davidson diagonalization with overlap
     ethr =  6.63E-03,  avg # of iterations =  6.0

     total cpu time spent up to now is        1.4 secs

     total energy              =    -900.12415619 Ry
     Harris-Foulkes estimate   =    -919.80004108 Ry
     estimated scf accuracy    <      71.59872018 Ry

     iteration #  3     ecut=    30.00 Ry     beta= 0.70
     Davidson diagonalization with overlap
     ethr =  6.63E-03,  avg # of iterations =  4.5

     total cpu time spent up to now is        2.0 secs

     total energy              =    -911.84397874 Ry
     Harris-Foulkes estimate   =    -912.49648558 Ry
     estimated scf accuracy    <       2.62458246 Ry

     iteration #  4     ecut=    30.00 Ry     beta= 0.70
     Davidson diagonalization with overlap
     ethr =  2.34E-03,  avg # of iterations =  2.5

     total cpu time spent up to now is        2.3 secs

     total energy              =    -911.74124072 Ry
     Harris-Foulkes estimate   =    -912.02547621 Ry
     estimated scf accuracy    <       1.11211685 Ry

     iteration #  5     ecut=    30.00 Ry     beta= 0.70
     Davidson diagonalization with overlap
     ethr =  9.93E-04,  avg # of iterations =  3.0

     total cpu time spent up to now is        2.6 secs

     total energy              =    -911.85647660 Ry
     Harris-Foulkes estimate   =    -911.88125077 Ry
     estimated scf accuracy    <       0.11076902 Ry

     iteration #  6     ecut=    30.00 Ry     beta= 0.70
     Davidson diagonalization with overlap
     ethr =  9.89E-05,  avg # of iterations =  3.8

     total cpu time spent up to now is        3.0 secs

     total energy              =    -911.86951898 Ry
     Harris-Foulkes estimate   =    -911.87729835 Ry
     estimated scf accuracy    <       0.01978737 Ry

     iteration #  7     ecut=    30.00 Ry     beta= 0.70
     Davidson diagonalization with overlap
     ethr =  1.77E-05,  avg # of iterations =  4.0

     total cpu time spent up to now is        3.4 secs

     total energy              =    -911.87667193 Ry
     Harris-Foulkes estimate   =    -911.87845660 Ry
     estimated scf accuracy    <       0.00720066 Ry

     iteration #  8     ecut=    30.00 Ry     beta= 0.70
     Davidson diagonalization with overlap
     ethr =  6.43E-06,  avg # of iterations =  3.0

     total cpu time spent up to now is        3.7 secs

     total energy              =    -911.87642683 Ry
     Harris-Foulkes estimate   =    -911.87707860 Ry
     estimated scf accuracy    <       0.00308986 Ry

     iteration #  9     ecut=    30.00 Ry     beta= 0.70
     Davidson diagonalization with overlap
     ethr =  2.76E-06,  avg # of iterations =  3.5

     total cpu time spent up to now is        4.1 secs

     total energy              =    -911.87687563 Ry
     Harris-Foulkes estimate   =    -911.87696262 Ry
     estimated scf accuracy    <       0.00025046 Ry

     iteration # 10     ecut=    30.00 Ry     beta= 0.70
     Davidson diagonalization with overlap
     ethr =  2.24E-07,  avg # of iterations =  4.2

     total cpu time spent up to now is        4.5 secs

     total energy              =    -911.87692096 Ry
     Harris-Foulkes estimate   =    -911.87693327 Ry
     estimated scf accuracy    <       0.00003371 Ry

     iteration # 11     ecut=    30.00 Ry     beta= 0.70
     Davidson diagonalization with overlap
     ethr =  3.01E-08,  avg # of iterations =  3.2

     total cpu time spent up to now is        4.9 secs

     total energy              =    -911.87692605 Ry
     Harris-Foulkes estimate   =    -911.87692699 Ry
     estimated scf accuracy    <       0.00000292 Ry

     iteration # 12     ecut=    30.00 Ry     beta= 0.70
     Davidson diagonalization with overlap
     ethr =  2.61E-09,  avg # of iterations =  3.8

     total cpu time spent up to now is        5.3 secs

     total energy              =    -911.87692667 Ry
     Harris-Foulkes estimate   =    -911.87692671 Ry
     estimated scf accuracy    <       0.00000013 Ry

     iteration # 13     ecut=    30.00 Ry     beta= 0.70
     Davidson diagonalization with overlap
     ethr =  1.14E-10,  avg # of iterations =  4.2

     total cpu time spent up to now is        5.8 secs

     total energy              =    -911.87692670 Ry
     Harris-Foulkes estimate   =    -911.87692671 Ry
     estimated scf accuracy    <       0.00000001 Ry

     iteration # 14     ecut=    30.00 Ry     beta= 0.70
     Davidson diagonalization with overlap
     ethr =  1.28E-11,  avg # of iterations =  4.0

     total cpu time spent up to now is        6.2 secs

     total energy              =    -911.87692671 Ry
     Harris-Foulkes estimate   =    -911.87692671 Ry
     estimated scf accuracy    <          1.4E-09 Ry

     iteration # 15     ecut=    30.00 Ry     beta= 0.70
     Davidson diagonalization with overlap
     ethr =  1.24E-12,  avg # of iterations =  4.0

     total cpu time spent up to now is        6.7 secs

     total energy              =    -911.87692671 Ry
     Harris-Foulkes estimate   =    -911.87692671 Ry
     estimated scf accuracy    <          3.6E-10 Ry

     iteration # 16     ecut=    30.00 Ry     beta= 0.70
     Davidson diagonalization with overlap
     ethr =  3.21E-13,  avg # of iterations =  3.2

     total cpu time spent up to now is        7.1 secs

     End of self-consistent calculation

          k = 0.0000 0.0000 0.0000 (  3419 PWs)   bands (ev):

   -63.3634 -63.3600 -63.3440 -63.3401 -37.9551 -37.9338 -37.9127 -37.8884
   -37.8849 -37.8758 -37.8536 -37.8382 -37.8378 -37.8330 -37.7964 -37.7672
   -14.9019 -14.8188 -13.8241 -13.7763 -13.5674 -13.5030 -12.8648 -12.8618
   -12.7052 -12.6980  -0.4735  -0.4501  -0.3366  -0.2549   0.2247   0.6492
     1.0622   1.4138   1.5622   1.7980   2.0057   2.0329   2.4214   2.4377
     2.5506   2.6351   2.6760   2.7170   2.8475   2.8947   2.9958   3.0840
     3.1719   3.2016   3.3776   3.7360   3.7450   3.9208   3.9730   4.0801

          k = 0.0000 0.2638 0.0000 (  3405 PWs)   bands (ev):

   -63.3706 -63.3600 -63.3142 -63.3074 -37.9520 -37.9463 -37.9014 -37.8918
   -37.8510 -37.8496 -37.8460 -37.8383 -37.8351 -37.8286 -37.7984 -37.7454
   -14.8528 -14.7785 -13.7962 -13.7641 -13.5572 -13.4883 -12.8582 -12.8339
   -12.6647 -12.6315  -0.5339  -0.5219  -0.3209  -0.3008   0.1303   0.3467
     0.5320   0.7420   0.9761   1.1136   1.7322   1.7592   1.8046   2.3781
     2.4878   2.5836   2.6416   2.6918   2.9797   3.3030   3.3897   3.4508
     3.5175   3.6471   3.6666   3.7086   3.7087   4.1823   4.2245   4.4773

          k = 0.3333 0.0000 0.0000 (  3414 PWs)   bands (ev):

   -63.3798 -63.3399 -63.3260 -63.3197 -37.9318 -37.9195 -37.9186 -37.9042
   -37.8865 -37.8671 -37.8557 -37.8541 -37.8500 -37.8170 -37.7841 -37.7763
   -14.3651 -14.2835 -13.7220 -13.7124 -13.5594 -13.4741 -12.8079 -12.7877
   -12.7301 -12.7274  -0.9940  -0.9386  -0.0730   0.1425   0.4165   0.4234
     0.6280   1.1665   1.2365   1.4972   1.5130   1.7901   2.1582   2.2041
     2.2948   2.4495   2.5284   2.6024   2.6935   2.7846   2.9090   2.9170
     2.9847   3.0943   3.6050   3.7999   3.8126   4.0229   4.0329   4.1272

          k = 0.3333 0.2638 0.0000 (  3431 PWs)   bands (ev):

   -63.3837 -63.3727 -63.3456 -63.3403 -37.9484 -37.9341 -37.9314 -37.9291
   -37.9194 -37.8966 -37.8826 -37.8748 -37.8295 -37.8104 -37.8072 -37.7961
   -14.3348 -14.2581 -13.7228 -13.7075 -13.5326 -13.4671 -12.7786 -12.7543
   -12.6898 -12.6643  -1.0245  -0.9766  -0.1400   0.1041   0.2418   0.3225
     0.4134   0.5755   0.7090   1.1032   1.1804   1.1917   1.6431   1.8339
     1.8462   2.0170   2.2156   2.2312   2.4726   2.8365   3.0179   3.3302
     3.4738   3.5814   4.0395   4.1419   4.1707   4.3273   4.4038   4.4892

     highest occupied level (ev):     4.4892

!    total energy              =    -911.87692671 Ry
     Harris-Foulkes estimate   =    -911.87692671 Ry
     estimated scf accuracy    <          1.6E-12 Ry

     The total energy is the sum of the following terms:

     one-electron contribution =    -562.92516763 Ry
     hartree contribution      =     313.90082924 Ry
     xc contribution           =    -170.98094548 Ry
     ewald contribution        =    -491.74104685 Ry
     Dispersion Correction     =      -0.13059599 Ry

     convergence has been achieved in  16 iterations

     Forces acting on atoms (cartesian axes, Ry/au):

     atom    1 type  1   force =     0.00000000   -0.08941246    0.03691977
     atom    2 type  1   force =     0.00000000    0.08941246   -0.03691977
     atom    3 type  1   force =     0.00000000    0.08941246    0.03691977
     atom    4 type  1   force =     0.00000000   -0.08941246   -0.03691977
     atom    5 type  2   force =    -0.00000000    0.03924115    0.02571872
     atom    6 type  2   force =     0.00000000   -0.03924115   -0.02571872
     atom    7 type  2   force =     0.00000000   -0.03924115    0.02571872
     atom    8 type  2   force =    -0.00000000    0.03924115   -0.02571872
     atom    9 type  2   force =     0.00000000    0.08046970   -0.00273521
     atom   10 type  2   force =     0.00000000   -0.08046970    0.00273521
     atom   11 type  2   force =    -0.00000000   -0.08046970   -0.00273521
     atom   12 type  2   force =     0.00000000   -0.04669477    0.00000000
     atom   13 type  2   force =     0.00000000    0.04669477    0.00000000
     atom   14 type  2   force =     0.00000000    0.08046970    0.00273521

     Total force =     0.276637     Total SCF correction =     0.000005


     Computing stress (Cartesian axis) and pressure

          total   stress  (Ry/bohr**3)                   (kbar)     P=-2631.32
  -0.01725369   0.00000000   0.00000000      -2538.11      0.00      0.00
   0.00000000  -0.01858968   0.00000000          0.00  -2734.64      0.00
   0.00000000   0.00000000  -0.01781875          0.00      0.00  -2621.23


     BFGS Geometry Optimization

     number of scf cycles    =   1
     number of bfgs steps    =   0

     enthalpy new            =    -911.8769267081 Ry

     new trust radius        =       0.5000000000 bohr
     new conv_thr            =            1.0E-10 Ry

     new unit-cell volume =    997.06774 a.u.^3 (   147.75019 Ang^3 )
     density =      4.08824 g/cm^3

CELL_PARAMETERS (alat=  6.68268247)
   0.933935682   0.000000000   0.000000000
   0.000000000   1.173712447   0.000000000
   0.000000000   0.000000000   3.047849437

ATOMIC_POSITIONS (crystal)
V        0.000000000   0.381267923   0.648337181
V        0.500000093   0.618732263   0.851663096
V        0.500000093   0.618732263   0.148337089
V        0.000000000   0.381267923   0.351663003
O        0.500000093   0.493086490   0.681471014
O        0.000000000   0.506913696   0.818529263
O        0.000000000   0.506913696   0.181470922
O        0.500000093   0.493086490   0.318529170
O        0.000000000   0.030323404   0.354149095
O        0.500000093   0.969676781   0.145850999
O        0.500000093   0.969676781   0.854149186
O        0.500000093   0.508296810   0.000000000
O        0.000000000   0.491703375   0.500000093
O        0.000000000   0.030323404   0.645851092



     Writing output data file v2o5.save/
     NEW-OLD atomic charge density approx. for the potential

     Check: negative core charge=   -0.001274
     extrapolated charge   85.43403, renormalised to  112.00000

     total cpu time spent up to now is        7.8 secs

     Self-consistent Calculation

     iteration #  1     ecut=    30.00 Ry     beta= 0.70
     Davidson diagonalization with overlap
     c_bands:  1 eigenvalues not converged
     c_bands:  2 eigenvalues not converged
     c_bands:  2 eigenvalues not converged
     c_bands:  3 eigenvalues not converged
     ethr =  1.00E-06,  avg # of iterations = 20.0

     total cpu time spent up to now is        9.7 secs

     total energy              =    -752.69957068 Ry
     Harris-Foulkes estimate   =   -1042.45837095 Ry
     estimated scf accuracy    <     175.74920236 Ry

     iteration #  2     ecut=    30.00 Ry     beta= 0.70
     Davidson diagonalization with overlap
     ethr =  1.00E-02,  avg # of iterations =  7.5

     total cpu time spent up to now is       10.8 secs

     total energy              =    -832.99579459 Ry
     Harris-Foulkes estimate   =   -1116.92771455 Ry
     estimated scf accuracy    <     766.25677417 Ry

     iteration #  3     ecut=    30.00 Ry     beta= 0.70
     Davidson diagonalization with overlap
     ethr =  1.00E-02,  avg # of iterations =  7.0

     total cpu time spent up to now is       11.7 secs

     total energy              =    -924.62079359 Ry
     Harris-Foulkes estimate   =    -940.18015872 Ry
     estimated scf accuracy    <      59.41785742 Ry

     iteration #  4     ecut=    30.00 Ry     beta= 0.70
     Davidson diagonalization with overlap
     ethr =  1.00E-02,  avg # of iterations =  3.2

     total cpu time spent up to now is       12.1 secs

     total energy              =    -918.32770971 Ry
     Harris-Foulkes estimate   =    -926.84971090 Ry
     estimated scf accuracy    <      29.19933985 Ry

     iteration #  5     ecut=    30.00 Ry     beta= 0.70
     Davidson diagonalization with overlap
     ethr =  1.00E-02,  avg # of iterations =  2.0

     total cpu time spent up to now is       12.3 secs

     total energy              =    -915.73722286 Ry
     Harris-Foulkes estimate   =    -919.34075872 Ry
     estimated scf accuracy    <      12.12135661 Ry

     iteration #  6     ecut=    30.00 Ry     beta= 0.70
     Davidson diagonalization with overlap
     ethr =  1.00E-02,  avg # of iterations =  1.8

     negative rho (up, down):  1.227E-02 0.000E+00

     total cpu time spent up to now is       12.6 secs

     total energy              =    -914.56384102 Ry
     Harris-Foulkes estimate   =    -916.20912117 Ry
     estimated scf accuracy    <       5.13130737 Ry

     iteration #  7     ecut=    30.00 Ry     beta= 0.70
     Davidson diagonalization with overlap
     ethr =  4.58E-03,  avg # of iterations =  3.0

     negative rho (up, down):  2.592E-03 0.000E+00

     total cpu time spent up to now is       13.0 secs

     total energy              =    -915.61093762 Ry
     Harris-Foulkes estimate   =    -915.73582582 Ry
     estimated scf accuracy    <       0.69851209 Ry

     iteration #  8     ecut=    30.00 Ry     beta= 0.70
     Davidson diagonalization with overlap
     ethr =  6.24E-04,  avg # of iterations =  2.5

     total cpu time spent up to now is       13.2 secs

     total energy              =    -915.51881044 Ry
     Harris-Foulkes estimate   =    -915.63707307 Ry
     estimated scf accuracy    <       0.37589422 Ry

     iteration #  9     ecut=    30.00 Ry     beta= 0.70
     Davidson diagonalization with overlap
     ethr =  3.36E-04,  avg # of iterations =  4.0

     total cpu time spent up to now is       13.7 secs

     total energy              =    -915.58898494 Ry
     Harris-Foulkes estimate   =    -915.65371209 Ry
     estimated scf accuracy    <       0.48818218 Ry

     iteration # 10     ecut=    30.00 Ry     beta= 0.70
     Davidson diagonalization with overlap
     ethr =  3.36E-04,  avg # of iterations =  1.0

     total cpu time spent up to now is       13.9 secs

     total energy              =    -915.42354057 Ry
     Harris-Foulkes estimate   =    -915.59495310 Ry
     estimated scf accuracy    <       0.36279773 Ry

     iteration # 11     ecut=    30.00 Ry     beta= 0.70
     Davidson diagonalization with overlap
     ethr =  3.24E-04,  avg # of iterations =  4.0

     total cpu time spent up to now is       14.4 secs

     total energy              =    -915.53887276 Ry
     Harris-Foulkes estimate   =    -915.55210336 Ry
     estimated scf accuracy    <       0.09730334 Ry

     iteration # 12     ecut=    30.00 Ry     beta= 0.70
     Davidson diagonalization with overlap
     ethr =  8.69E-05,  avg # of iterations =  1.0

     total cpu time spent up to now is       14.6 secs

     total energy              =    -915.52495880 Ry
     Harris-Foulkes estimate   =    -915.54023934 Ry
     estimated scf accuracy    <       0.06272214 Ry

     iteration # 13     ecut=    30.00 Ry     beta= 0.70
     Davidson diagonalization with overlap
     ethr =  5.60E-05,  avg # of iterations =  3.2

     total cpu time spent up to now is       15.0 secs

     total energy              =    -915.53474952 Ry
     Harris-Foulkes estimate   =    -915.53485733 Ry
     estimated scf accuracy    <       0.00043942 Ry

     iteration # 14     ecut=    30.00 Ry     beta= 0.70
     Davidson diagonalization with overlap
     ethr =  3.92E-07,  avg # of iterations =  4.5

     total cpu time spent up to now is       15.5 secs

     total energy              =    -915.53490840 Ry
     Harris-Foulkes estimate   =    -915.53498032 Ry
     estimated scf accuracy    <       0.00018189 Ry

     iteration # 15     ecut=    30.00 Ry     beta= 0.70
     Davidson diagonalization with overlap
     ethr =  1.62E-07,  avg # of iterations =  4.0

     total cpu time spent up to now is       16.0 secs

     total energy              =    -915.53490839 Ry
     Harris-Foulkes estimate   =    -915.53502001 Ry
     estimated scf accuracy    <       0.00035065 Ry

     iteration # 16     ecut=    30.00 Ry     beta= 0.70
     Davidson diagonalization with overlap
     ethr =  1.62E-07,  avg # of iterations =  4.0

     total cpu time spent up to now is       16.4 secs

     total energy              =    -915.53494839 Ry
     Harris-Foulkes estimate   =    -915.53494925 Ry
     estimated scf accuracy    <       0.00001098 Ry

     iteration # 17     ecut=    30.00 Ry     beta= 0.70
     Davidson diagonalization with overlap
     ethr =  9.80E-09,  avg # of iterations =  2.5

     total cpu time spent up to now is       16.7 secs

     total energy              =    -915.53494619 Ry
     Harris-Foulkes estimate   =    -915.53494880 Ry
     estimated scf accuracy    <       0.00000869 Ry

     iteration # 18     ecut=    30.00 Ry     beta= 0.70
     Davidson diagonalization with overlap
     ethr =  7.75E-09,  avg # of iterations =  3.0

     total cpu time spent up to now is       17.1 secs

     total energy              =    -915.53494763 Ry
     Harris-Foulkes estimate   =    -915.53494765 Ry
     estimated scf accuracy    <       0.00000005 Ry

     iteration # 19     ecut=    30.00 Ry     beta= 0.70
     Davidson diagonalization with overlap
     ethr =  4.36E-11,  avg # of iterations =  5.0

     total cpu time spent up to now is       17.6 secs

     total energy              =    -915.53494766 Ry
     Harris-Foulkes estimate   =    -915.53494767 Ry
     estimated scf accuracy    <       0.00000001 Ry

     iteration # 20     ecut=    30.00 Ry     beta= 0.70
     Davidson diagonalization with overlap
     ethr =  1.08E-11,  avg # of iterations =  4.0

     total cpu time spent up to now is       18.1 secs

     total energy              =    -915.53494766 Ry
     Harris-Foulkes estimate   =    -915.53494766 Ry
     estimated scf accuracy    <          1.8E-09 Ry

     iteration # 21     ecut=    30.00 Ry     beta= 0.70
     Davidson diagonalization with overlap
     ethr =  1.59E-12,  avg # of iterations =  4.0

     total cpu time spent up to now is       18.5 secs

     End of self-consistent calculation

          k = 0.0000 0.0000 0.0000 (  3419 PWs)   bands (ev):

   -58.6189 -58.6031 -58.5997 -58.5900 -33.6113 -33.6048 -33.5807 -33.5677
   -33.2399 -33.1670 -33.0861 -33.0730 -33.0578 -32.9928 -32.9858 -32.9619
   -12.4647 -12.3179 -11.0478 -11.0264 -10.6605 -10.4745  -9.8946  -9.8857
    -9.6363  -9.6286   1.3952   1.4133   1.4219   1.4655   2.2611   2.7186
     2.9555   3.1942   3.5044   3.5246   4.0641   4.0941   4.5116   4.5585
     4.6259   4.6513   4.7153   4.7712   4.8092   5.0398   5.0952   5.2040
     5.5504   5.7067   5.8143   6.1044   6.1266   6.1596   6.1799   6.4890

          k = 0.0000 0.2840 0.0000 (  3405 PWs)   bands (ev):

   -58.6150 -58.6109 -58.5851 -58.5572 -33.6282 -33.5992 -33.5866 -33.5743
   -33.2208 -33.1691 -33.0915 -33.0546 -33.0539 -32.9875 -32.9793 -32.9641
   -12.3740 -12.2415 -11.0235 -11.0025 -10.6091 -10.4472  -9.8530  -9.8042
    -9.5346  -9.4769   1.3282   1.3364   1.3545   1.3765   1.6199   1.7529
     2.5194   2.5725   2.6787   2.8649   3.5701   3.6288   3.7484   4.3901
     4.4677   4.5534   4.7562   5.1385   5.2541   5.5009   5.5405   5.8358
     5.8663   5.9898   6.1428   6.2106   6.2197   6.4965   6.6720   6.8333

          k = 0.3569 0.0000 0.0000 (  3414 PWs)   bands (ev):

   -58.6273 -58.5837 -58.5754 -58.5714 -33.5896 -33.5879 -33.5838 -33.5762
   -33.2383 -33.2014 -33.1765 -33.1560 -33.0663 -33.0357 -32.9989 -32.9974
   -11.6757 -11.5068 -10.8436 -10.7469 -10.5035 -10.3894  -9.7909  -9.7635
    -9.6722  -9.6666   0.8046   0.9669   1.6577   2.0808   2.4639   2.4922
     2.5648   2.9014   3.1169   3.2328   3.3462   3.4080   3.9825   4.1583
     4.2686   4.3745   4.4133   4.5167   5.0351   5.1464   5.2329   5.3365
     5.3435   5.5820   5.7320   5.8707   6.1319   6.2112   6.3421   6.5720

          k = 0.3569 0.2840 0.0000 (  3431 PWs)   bands (ev):

   -58.6210 -58.6097 -58.5988 -58.5899 -33.6029 -33.5999 -33.5851 -33.5768
   -33.2432 -33.2156 -33.1946 -33.1856 -33.0550 -33.0521 -33.0146 -32.9859
   -11.6054 -11.4541 -10.8333 -10.7407 -10.4529 -10.3741  -9.7140  -9.6650
    -9.5619  -9.5120   0.7905   0.9375   1.5127   1.8384   1.8442   1.8857
     2.2576   2.2610   2.6789   2.7034   2.9013   3.3293   3.5573   3.9280
     3.9639   4.0741   4.2396   4.2518   4.4710   4.9016   5.1283   5.5773
     5.9004   5.9811   6.3011   6.3965   6.5194   6.6778   6.8406   6.9105

     highest occupied level (ev):     6.9105

!    total energy              =    -915.53494766 Ry
     Harris-Foulkes estimate   =    -915.53494766 Ry
     estimated scf accuracy    <          3.0E-11 Ry

     The total energy is the sum of the following terms:

     one-electron contribution =    -521.52164764 Ry
     hartree contribution      =     307.91878047 Ry
     xc contribution           =    -174.52264752 Ry
     ewald contribution        =    -527.24941144 Ry
     Dispersion Correction     =      -0.16002153 Ry

     convergence has been achieved in  21 iterations

     Forces acting on atoms (cartesian axes, Ry/au):

     atom    1 type  1   force =     0.00000000    0.15587057    0.07889371
     atom    2 type  1   force =     0.00000000   -0.15587057   -0.07889371
     atom    3 type  1   force =     0.00000000   -0.15587057    0.07889371
     atom    4 type  1   force =     0.00000000    0.15587057   -0.07889371
     atom    5 type  2   force =     0.00000000    0.06960269   -0.01053644
     atom    6 type  2   force =     0.00000000   -0.06960269    0.01053644
     atom    7 type  2   force =     0.00000000   -0.06960269   -0.01053644
     atom    8 type  2   force =    -0.00000000    0.06960269    0.01053644
     atom    9 type  2   force =     0.00000000   -0.29403401    0.01791744
     atom   10 type  2   force =     0.00000000    0.29403401   -0.01791744
     atom   11 type  2   force =     0.00000000    0.29403401    0.01791744
     atom   12 type  2   force =     0.00000000   -0.11502627   -0.00000000
     atom   13 type  2   force =     0.00000000    0.11502627   -0.00000000
     atom   14 type  2   force =     0.00000000   -0.29403401   -0.01791744

     Total force =     0.717964     Total SCF correction =     0.000012


     Computing stress (Cartesian axis) and pressure

          total   stress  (Ry/bohr**3)                   (kbar)     P=-1785.46
  -0.01228541   0.00000000   0.00000000      -1807.25      0.00      0.00
   0.00000000  -0.01162306   0.00000000          0.00  -1709.81      0.00
   0.00000000   0.00000000  -0.01250350          0.00      0.00  -1839.33


     number of scf cycles    =   2
     number of bfgs steps    =   1

     enthalpy old            =    -911.8769267081 Ry
     enthalpy new            =    -915.5349476627 Ry

     CASE: enthalpy_new < enthalpy_old

     new trust radius        =       0.7259534390 bohr
     new conv_thr            =            1.0E-10 Ry

     new unit-cell volume =    725.03278 a.u.^3 (   107.43877 Ang^3 )
     density =      5.62216 g/cm^3

CELL_PARAMETERS (alat=  6.68268247)
   0.826577929   0.000000000   0.000000000
   0.000000000   1.088207037   0.000000000
   0.000000000   0.000000000   2.700908241

ATOMIC_POSITIONS (crystal)
V        0.000000000   0.412522275   0.652082555
V        0.500000213   0.587478150   0.847918082
V        0.500000213   0.587478150   0.152082343
V        0.000000000   0.412522275   0.347917870
O        0.500000213   0.501104418   0.680082818
O        0.000000000   0.498896008   0.819917820
O        0.000000000   0.498896008   0.180082606
O        0.500000213   0.501104418   0.319917607
O       -0.000000000  -0.022018681   0.355321993
O        0.500000213   1.022019107   0.144678221
O        0.500000213   1.022019107   0.855322205
O        0.500000213   0.493684708  -0.000000000
O        0.000000000   0.506315717   0.500000213
O        0.000000000  -0.022018681   0.644678434



     Writing output data file v2o5.save/
     NEW-OLD atomic charge density approx. for the potential

     Check: negative core charge=   -0.000573

     negative rho (up, down):  4.634E-02 0.000E+00
     extrapolated charge   69.97877, renormalised to  112.00000

     total cpu time spent up to now is       19.2 secs

     Self-consistent Calculation

     iteration #  1     ecut=    30.00 Ry     beta= 0.70
     Davidson diagonalization with overlap
     c_bands:  1 eigenvalues not converged
     c_bands:  4 eigenvalues not converged
     ethr =  1.00E-06,  avg # of iterations = 22.8

     total cpu time spent up to now is       21.7 secs

     total energy              =    -664.05543500 Ry
     Harris-Foulkes estimate   =   -1120.63117965 Ry
     estimated scf accuracy    <     291.44031422 Ry

     iteration #  2     ecut=    30.00 Ry     beta= 0.70
     Davidson diagonalization with overlap
     ethr =  1.00E-02,  avg # of iterations =  9.0

     total cpu time spent up to now is       22.9 secs

     total energy              =    -814.45310682 Ry
     Harris-Foulkes estimate   =   -1255.48044601 Ry
     estimated scf accuracy    <    1173.58360035 Ry

     iteration #  3     ecut=    30.00 Ry     beta= 0.70
     Davidson diagonalization with overlap
     ethr =  1.00E-02,  avg # of iterations =  7.5

     total cpu time spent up to now is       23.8 secs

     total energy              =    -922.31373656 Ry
     Harris-Foulkes estimate   =    -946.97289791 Ry
     estimated scf accuracy    <      86.16545414 Ry

     iteration #  4     ecut=    30.00 Ry     beta= 0.70
     Davidson diagonalization with overlap
     ethr =  1.00E-02,  avg # of iterations =  5.2

     total cpu time spent up to now is       24.4 secs

     total energy              =    -917.46168669 Ry
     Harris-Foulkes estimate   =    -928.41659837 Ry
     estimated scf accuracy    <      31.83944342 Ry

     iteration #  5     ecut=    30.00 Ry     beta= 0.70
     Davidson diagonalization with overlap
     ethr =  1.00E-02,  avg # of iterations =  4.0

     negative rho (up, down):  3.460E-03 0.000E+00

     total cpu time spent up to now is       24.8 secs

     total energy              =    -916.85291577 Ry
     Harris-Foulkes estimate   =    -919.66056263 Ry
     estimated scf accuracy    <       8.38064738 Ry

     iteration #  6     ecut=    30.00 Ry     beta= 0.70
     Davidson diagonalization with overlap
     ethr =  7.48E-03,  avg # of iterations =  3.0

     negative rho (up, down):  3.227E-03 0.000E+00

     total cpu time spent up to now is       25.1 secs

     total energy              =    -916.51101965 Ry
     Harris-Foulkes estimate   =    -917.49039729 Ry
     estimated scf accuracy    <       2.93839226 Ry

     iteration #  7     ecut=    30.00 Ry     beta= 0.70
     Davidson diagonalization with overlap
     ethr =  2.62E-03,  avg # of iterations =  4.5

     total cpu time spent up to now is       25.6 secs

     total energy              =    -917.07739662 Ry
     Harris-Foulkes estimate   =    -917.28967278 Ry
     estimated scf accuracy    <       0.63611395 Ry

     iteration #  8     ecut=    30.00 Ry     beta= 0.70
     Davidson diagonalization with overlap
     ethr =  5.68E-04,  avg # of iterations =  4.2

     total cpu time spent up to now is       26.0 secs

     total energy              =    -917.12323126 Ry
     Harris-Foulkes estimate   =    -917.18128395 Ry
     estimated scf accuracy    <       0.18844191 Ry

     iteration #  9     ecut=    30.00 Ry     beta= 0.70
     Davidson diagonalization with overlap
     ethr =  1.68E-04,  avg # of iterations =  4.0

     total cpu time spent up to now is       26.4 secs

     total energy              =    -917.10829122 Ry
     Harris-Foulkes estimate   =    -917.14867388 Ry
     estimated scf accuracy    <       0.12035552 Ry

     iteration # 10     ecut=    30.00 Ry     beta= 0.70
     Davidson diagonalization with overlap
     ethr =  1.07E-04,  avg # of iterations =  4.0

     total cpu time spent up to now is       26.8 secs

     total energy              =    -917.12648944 Ry
     Harris-Foulkes estimate   =    -917.12844692 Ry
     estimated scf accuracy    <       0.00645257 Ry

     iteration # 11     ecut=    30.00 Ry     beta= 0.70
     Davidson diagonalization with overlap
     ethr =  5.76E-06,  avg # of iterations =  5.8

     total cpu time spent up to now is       27.4 secs

     total energy              =    -917.12701792 Ry
     Harris-Foulkes estimate   =    -917.12969421 Ry
     estimated scf accuracy    <       0.00615840 Ry

     iteration # 12     ecut=    30.00 Ry     beta= 0.70
     Davidson diagonalization with overlap
     ethr =  5.50E-06,  avg # of iterations =  4.2

     total cpu time spent up to now is       27.9 secs

     total energy              =    -917.12832540 Ry
     Harris-Foulkes estimate   =    -917.12867713 Ry
     estimated scf accuracy    <       0.00155134 Ry

     iteration # 13     ecut=    30.00 Ry     beta= 0.70
     Davidson diagonalization with overlap
     ethr =  1.39E-06,  avg # of iterations =  4.0

     total cpu time spent up to now is       28.2 secs

     total energy              =    -917.12838317 Ry
     Harris-Foulkes estimate   =    -917.12844079 Ry
     estimated scf accuracy    <       0.00018936 Ry

     iteration # 14     ecut=    30.00 Ry     beta= 0.70
     Davidson diagonalization with overlap
     ethr =  1.69E-07,  avg # of iterations =  4.8

     total cpu time spent up to now is       28.7 secs

     total energy              =    -917.12845861 Ry
     Harris-Foulkes estimate   =    -917.12848249 Ry
     estimated scf accuracy    <       0.00009884 Ry

     iteration # 15     ecut=    30.00 Ry     beta= 0.70
     Davidson diagonalization with overlap
     ethr =  8.83E-08,  avg # of iterations =  4.0

     total cpu time spent up to now is       29.1 secs

     total energy              =    -917.12846389 Ry
     Harris-Foulkes estimate   =    -917.12846587 Ry
     estimated scf accuracy    <       0.00000955 Ry

     iteration # 16     ecut=    30.00 Ry     beta= 0.70
     Davidson diagonalization with overlap
     ethr =  8.53E-09,  avg # of iterations =  6.2

     total cpu time spent up to now is       29.7 secs

     total energy              =    -917.12846859 Ry
     Harris-Foulkes estimate   =    -917.12846886 Ry
     estimated scf accuracy    <       0.00000228 Ry

     iteration # 17     ecut=    30.00 Ry     beta= 0.70
     Davidson diagonalization with overlap
     ethr =  2.04E-09,  avg # of iterations =  1.8

     total cpu time spent up to now is       29.9 secs

     total energy              =    -917.12846815 Ry
     Harris-Foulkes estimate   =    -917.12846863 Ry
     estimated scf accuracy    <       0.00000170 Ry

     iteration # 18     ecut=    30.00 Ry     beta= 0.70
     Davidson diagonalization with overlap
     ethr =  1.52E-09,  avg # of iterations =  4.0

     total cpu time spent up to now is       30.4 secs

     total energy              =    -917.12846847 Ry
     Harris-Foulkes estimate   =    -917.12846850 Ry
     estimated scf accuracy    <       0.00000010 Ry

     iteration # 19     ecut=    30.00 Ry     beta= 0.70
     Davidson diagonalization with overlap
     ethr =  8.63E-11,  avg # of iterations =  4.8

     total cpu time spent up to now is       30.8 secs

     total energy              =    -917.12846848 Ry
     Harris-Foulkes estimate   =    -917.12846849 Ry
     estimated scf accuracy    <          6.5E-09 Ry

     iteration # 20     ecut=    30.00 Ry     beta= 0.70
     Davidson diagonalization with overlap
     ethr =  5.80E-12,  avg # of iterations =  4.2

     total cpu time spent up to now is       31.4 secs

     total energy              =    -917.12846849 Ry
     Harris-Foulkes estimate   =    -917.12846849 Ry
     estimated scf accuracy    <          8.8E-09 Ry

     iteration # 21     ecut=    30.00 Ry     beta= 0.70
     Davidson diagonalization with overlap
     ethr =  5.80E-12,  avg # of iterations =  4.0

     total cpu time spent up to now is       31.7 secs

     total energy              =    -917.12846849 Ry
     Harris-Foulkes estimate   =    -917.12846849 Ry
     estimated scf accuracy    <          2.3E-09 Ry

     iteration # 22     ecut=    30.00 Ry     beta= 0.70
     Davidson diagonalization with overlap
     ethr =  2.05E-12,  avg # of iterations =  4.8

     total cpu time spent up to now is       32.1 secs

     total energy              =    -917.12846849 Ry
     Harris-Foulkes estimate   =    -917.12846849 Ry
     estimated scf accuracy    <          2.6E-10 Ry

     iteration # 23     ecut=    30.00 Ry     beta= 0.70
     Davidson diagonalization with overlap
     ethr =  2.32E-13,  avg # of iterations =  4.8

     total cpu time spent up to now is       32.6 secs

     End of self-consistent calculation

          k = 0.0000 0.0000 0.0000 (  3419 PWs)   bands (ev):

   -52.6939 -52.6908 -52.4497 -52.4484 -28.3115 -28.0365 -27.7624 -27.7504
   -27.4053 -27.2901 -27.2727 -27.0871 -26.3912 -26.3624 -26.3573 -26.3255
    -9.3281  -8.9296  -8.7209  -8.6033  -6.0184  -5.7130  -4.2955  -4.1803
    -3.6103  -3.4562   2.9769   3.3155   4.0622   4.3474   4.8013   5.4059
     6.5656   6.8655   6.8898   7.1236   7.6648   8.1398   8.5877   8.5982
     8.6779   8.7545   9.1109   9.2460   9.8719  10.7588  11.5251  11.5860
    11.6869  11.7406  11.8499  11.8690  11.8729  12.8766  13.0061  13.1876

          k = 0.0000 0.3063 0.0000 (  3405 PWs)   bands (ev):

   -52.6970 -52.6856 -52.4612 -52.4196 -28.3070 -28.0362 -27.7635 -27.7417
   -27.4057 -27.2940 -27.2735 -27.0893 -26.4086 -26.3814 -26.3715 -26.3459
    -9.2397  -8.8573  -8.7096  -8.5838  -5.9430  -5.6838  -4.0704  -3.8950
    -3.1966  -2.9593   2.9979   3.2746   4.0161   4.2713   4.3095   4.7131
     6.1507   6.2786   6.4183   6.6532   7.6510   8.0462   8.0741   8.2471
     8.2541   8.6004   8.8531   9.0125   9.4886   9.7559  10.4914  10.8727
    11.5874  11.7049  11.9379  12.1890  12.3875  12.7264  13.1008  13.2337

          k = 0.4033 0.0000 0.0000 (  3414 PWs)   bands (ev):

   -52.6028 -52.5834 -52.4968 -52.4639 -28.4338 -28.3454 -28.2938 -28.2700
   -27.4627 -27.3266 -27.2860 -27.0676 -26.3616 -26.3435 -26.3339 -26.3250
    -7.7781  -7.2672  -7.1780  -6.7996  -5.4392  -5.2574  -3.9348  -3.7912
    -3.5630  -3.4492   2.4752   2.9158   3.2072   3.4776   4.6736   4.6921
     4.8968   5.1803   5.6680   6.7672   7.1697   7.5885   7.6389   8.2815
     8.3646   9.1349   9.2788   9.7998   9.9969  10.2354  10.3963  10.4841
    11.7171  11.7512  11.8618  11.9162  11.9674  12.2990  12.3164  13.0329

          k = 0.4033 0.3063 0.0000 (  3431 PWs)   bands (ev):

   -52.6073 -52.5927 -52.4933 -52.4841 -28.4372 -28.3433 -28.2947 -28.2738
   -27.4636 -27.3292 -27.2905 -27.0673 -26.3747 -26.3677 -26.3561 -26.3486
    -7.7027  -7.2583  -7.1192  -6.7936  -5.3743  -5.2518  -3.6228  -3.4536
    -3.1617  -2.9569   2.4680   2.8855   3.1845   3.4235   4.1602   4.3869
     4.5394   4.5897   5.6457   6.4030   6.5918   6.8502   7.6792   7.8678
     7.9825   8.6000   8.6228   9.1324   9.7364   9.9122   9.9956  10.2391
    11.5010  11.5136  11.6278  11.6321  12.3667  12.4342  12.9997  13.0339

     highest occupied level (ev):    13.2337

!    total energy              =    -917.12846849 Ry
     Harris-Foulkes estimate   =    -917.12846849 Ry
     estimated scf accuracy    <          4.7E-12 Ry

     The total energy is the sum of the following terms:

     one-electron contribution =    -422.75659231 Ry
     hartree contribution      =     281.25051288 Ry
     xc contribution           =    -178.53097063 Ry
     ewald contribution        =    -596.88435556 Ry
     Dispersion Correction     =      -0.20706287 Ry

     convergence has been achieved in  23 iterations

     Forces acting on atoms (cartesian axes, Ry/au):

     atom    1 type  1   force =     0.00000000   -0.55755595   -0.13431471
     atom    2 type  1   force =     0.00000000    0.55755595    0.13431471
     atom    3 type  1   force =     0.00000000    0.55755595   -0.13431471
     atom    4 type  1   force =     0.00000000   -0.55755595    0.13431471
     atom    5 type  2   force =    -0.00000000    0.16725567   -0.21677437
     atom    6 type  2   force =     0.00000000   -0.16725567    0.21677437
     atom    7 type  2   force =     0.00000000   -0.16725567   -0.21677437
     atom    8 type  2   force =     0.00000000    0.16725567    0.21677437
     atom    9 type  2   force =     0.00000000    0.07003532    0.02263385
     atom   10 type  2   force =     0.00000000   -0.07003532   -0.02263385
     atom   11 type  2   force =    -0.00000000   -0.07003532    0.02263385
     atom   12 type  2   force =     0.00000000   -0.24648509    0.00000000
     atom   13 type  2   force =    -0.00000000    0.24648509    0.00000000
     atom   14 type  2   force =     0.00000000    0.07003532   -0.02263385

     Total force =     1.326151     Total SCF correction =     0.000007


     Computing stress (Cartesian axis) and pressure

          total   stress  (Ry/bohr**3)                   (kbar)     P=  438.77
   0.01038096   0.00000000   0.00000000       1527.09      0.00      0.00
   0.00000000  -0.01049082   0.00000000          0.00  -1543.25      0.00
   0.00000000   0.00000000   0.00905802          0.00      0.00   1332.48


     number of scf cycles    =   3
     number of bfgs steps    =   2

     enthalpy old            =    -915.5349476627 Ry
     enthalpy new            =    -917.1284684885 Ry

     CASE: enthalpy_new < enthalpy_old

     new trust radius        =       0.8000000000 bohr
     new conv_thr            =            1.0E-10 Ry

     new unit-cell volume =    668.74195 a.u.^3 (    99.09733 Ang^3 )
     density =      6.09540 g/cm^3

CELL_PARAMETERS (alat=  6.68268247)
   0.866056601   0.000000000   0.000000000
   0.000000000   0.926550711   0.000000000
   0.000000000   0.000000000   2.792483538

ATOMIC_POSITIONS (crystal)
V        0.000000000   0.397561865   0.651215163
V        0.500000253   0.602438641   0.848785595
V        0.500000253   0.602438641   0.151214911
V        0.000000000   0.397561865   0.348785342
O        0.500000253   0.513456800   0.675309412
O        0.000000000   0.486543706   0.824691346
O        0.000000000   0.486543706   0.175309160
O        0.500000253   0.513456800   0.324691093
O        0.000000000  -0.041861875   0.356283947
O        0.500000253   1.041862381   0.143716307
O        0.500000253   1.041862381   0.856284199
O        0.500000253   0.474238086  -0.000000000
O       -0.000000000   0.525762420   0.500000253
O        0.000000000  -0.041861875   0.643716560



     Writing output data file v2o5.save/
     NEW-OLD atomic charge density approx. for the potential

     Check: negative core charge=   -0.000542
     extrapolated charge  102.57284, renormalised to  112.00000

     total cpu time spent up to now is       33.3 secs

     Self-consistent Calculation

     iteration #  1     ecut=    30.00 Ry     beta= 0.70
     Davidson diagonalization with overlap
     ethr =  1.00E-06,  avg # of iterations = 17.5

     total cpu time spent up to now is       35.4 secs

     total energy              =    -891.73091187 Ry
     Harris-Foulkes estimate   =    -946.50438299 Ry
     estimated scf accuracy    <      26.38216423 Ry

     iteration #  2     ecut=    30.00 Ry     beta= 0.70
     Davidson diagonalization with overlap
     ethr =  1.00E-02,  avg # of iterations =  5.0

     total cpu time spent up to now is       36.1 secs

     total energy              =    -911.60509002 Ry
     Harris-Foulkes estimate   =    -949.84728041 Ry
     estimated scf accuracy    <      99.74529720 Ry

     iteration #  3     ecut=    30.00 Ry     beta= 0.70
     Davidson diagonalization with overlap
     ethr =  1.00E-02,  avg # of iterations =  6.0

     total cpu time spent up to now is       36.8 secs

     total energy              =    -919.43471109 Ry
     Harris-Foulkes estimate   =    -922.52517242 Ry
     estimated scf accuracy    <      15.03090427 Ry

     iteration #  4     ecut=    30.00 Ry     beta= 0.70
     Davidson diagonalization with overlap
     ethr =  1.00E-02,  avg # of iterations =  1.0

     total cpu time spent up to now is       37.0 secs

     total energy              =    -916.77291004 Ry
     Harris-Foulkes estimate   =    -919.76270762 Ry
     estimated scf accuracy    <       9.60023499 Ry

     iteration #  5     ecut=    30.00 Ry     beta= 0.70
     Davidson diagonalization with overlap
     ethr =  8.57E-03,  avg # of iterations =  3.2

     total cpu time spent up to now is       37.4 secs

     total energy              =    -917.71164878 Ry
     Harris-Foulkes estimate   =    -917.79722001 Ry
     estimated scf accuracy    <       1.56198474 Ry

     iteration #  6     ecut=    30.00 Ry     beta= 0.70
     Davidson diagonalization with overlap
     ethr =  1.39E-03,  avg # of iterations =  2.8

     total cpu time spent up to now is       37.7 secs

     total energy              =    -917.40712924 Ry
     Harris-Foulkes estimate   =    -917.80243032 Ry
     estimated scf accuracy    <       1.33685780 Ry

     iteration #  7     ecut=    30.00 Ry     beta= 0.70
     Davidson diagonalization with overlap
     ethr =  1.19E-03,  avg # of iterations =  4.5

     total cpu time spent up to now is       38.1 secs

     total energy              =    -917.68232093 Ry
     Harris-Foulkes estimate   =    -917.67935938 Ry
     estimated scf accuracy    <       0.22624571 Ry

     iteration #  8     ecut=    30.00 Ry     beta= 0.70
     Davidson diagonalization with overlap
     ethr =  2.02E-04,  avg # of iterations =  3.2

     total cpu time spent up to now is       38.4 secs

     total energy              =    -917.66189349 Ry
     Harris-Foulkes estimate   =    -917.70014703 Ry
     estimated scf accuracy    <       0.21426632 Ry

     iteration #  9     ecut=    30.00 Ry     beta= 0.70
     Davidson diagonalization with overlap
     ethr =  1.91E-04,  avg # of iterations =  1.0

     total cpu time spent up to now is       38.6 secs

     total energy              =    -917.60641228 Ry
     Harris-Foulkes estimate   =    -917.66690414 Ry
     estimated scf accuracy    <       0.12775392 Ry

     iteration # 10     ecut=    30.00 Ry     beta= 0.70
     Davidson diagonalization with overlap
     ethr =  1.14E-04,  avg # of iterations =  4.8

     total cpu time spent up to now is       39.1 secs

     total energy              =    -917.78205485 Ry
     Harris-Foulkes estimate   =    -917.78686943 Ry
     estimated scf accuracy    <       0.03548034 Ry

     iteration # 11     ecut=    30.00 Ry     beta= 0.70
     Davidson diagonalization with overlap
     ethr =  3.17E-05,  avg # of iterations =  1.0

     total cpu time spent up to now is       39.4 secs

     total energy              =    -917.77182022 Ry
     Harris-Foulkes estimate   =    -917.78247395 Ry
     estimated scf accuracy    <       0.02407218 Ry

     iteration # 12     ecut=    30.00 Ry     beta= 0.70
     Davidson diagonalization with overlap
     ethr =  2.15E-05,  avg # of iterations =  4.0

     total cpu time spent up to now is       39.9 secs

     total energy              =    -917.77996359 Ry
     Harris-Foulkes estimate   =    -917.78088963 Ry
     estimated scf accuracy    <       0.00650140 Ry

     iteration # 13     ecut=    30.00 Ry     beta= 0.70
     Davidson diagonalization with overlap
     ethr =  5.80E-06,  avg # of iterations =  1.0

     total cpu time spent up to now is       40.1 secs

     total energy              =    -917.77946216 Ry
     Harris-Foulkes estimate   =    -917.78006029 Ry
     estimated scf accuracy    <       0.00437496 Ry

     iteration # 14     ecut=    30.00 Ry     beta= 0.70
     Davidson diagonalization with overlap
     ethr =  3.91E-06,  avg # of iterations =  2.0

     total cpu time spent up to now is       40.3 secs

     total energy              =    -917.77908248 Ry
     Harris-Foulkes estimate   =    -917.77961185 Ry
     estimated scf accuracy    <       0.00234783 Ry

     iteration # 15     ecut=    30.00 Ry     beta= 0.70
     Davidson diagonalization with overlap
     ethr =  2.10E-06,  avg # of iterations =  4.0

     total cpu time spent up to now is       40.7 secs

     total energy              =    -917.77949323 Ry
     Harris-Foulkes estimate   =    -917.77951905 Ry
     estimated scf accuracy    <       0.00008115 Ry

     iteration # 16     ecut=    30.00 Ry     beta= 0.70
     Davidson diagonalization with overlap
     ethr =  7.25E-08,  avg # of iterations =  4.2

     total cpu time spent up to now is       41.2 secs

     total energy              =    -917.77951966 Ry
     Harris-Foulkes estimate   =    -917.77952517 Ry
     estimated scf accuracy    <       0.00000937 Ry

     iteration # 17     ecut=    30.00 Ry     beta= 0.70
     Davidson diagonalization with overlap
     ethr =  8.36E-09,  avg # of iterations =  4.0

     total cpu time spent up to now is       41.8 secs

     total energy              =    -917.77952099 Ry
     Harris-Foulkes estimate   =    -917.77952381 Ry
     estimated scf accuracy    <       0.00000570 Ry

     iteration # 18     ecut=    30.00 Ry     beta= 0.70
     Davidson diagonalization with overlap
     ethr =  5.09E-09,  avg # of iterations =  4.0

     total cpu time spent up to now is       42.3 secs

     total energy              =    -917.77952225 Ry
     Harris-Foulkes estimate   =    -917.77952284 Ry
     estimated scf accuracy    <       0.00000114 Ry

     iteration # 19     ecut=    30.00 Ry     beta= 0.70
     Davidson diagonalization with overlap
     ethr =  1.01E-09,  avg # of iterations =  4.0

     total cpu time spent up to now is       42.8 secs

     total energy              =    -917.77952254 Ry
     Harris-Foulkes estimate   =    -917.77952264 Ry
     estimated scf accuracy    <       0.00000029 Ry

     iteration # 20     ecut=    30.00 Ry     beta= 0.70
     Davidson diagonalization with overlap
     ethr =  2.57E-10,  avg # of iterations =  3.2

     total cpu time spent up to now is       43.1 secs

     total energy              =    -917.77952257 Ry
     Harris-Foulkes estimate   =    -917.77952258 Ry
     estimated scf accuracy    <          1.0E-08 Ry

     iteration # 21     ecut=    30.00 Ry     beta= 0.70
     Davidson diagonalization with overlap
     ethr =  8.92E-12,  avg # of iterations =  4.2

     total cpu time spent up to now is       43.7 secs

     total energy              =    -917.77952258 Ry
     Harris-Foulkes estimate   =    -917.77952258 Ry
     estimated scf accuracy    <          3.0E-09 Ry

     iteration # 22     ecut=    30.00 Ry     beta= 0.70
     Davidson diagonalization with overlap
     ethr =  2.68E-12,  avg # of iterations =  2.5

     total cpu time spent up to now is       44.0 secs

     total energy              =    -917.77952258 Ry
     Harris-Foulkes estimate   =    -917.77952258 Ry
     estimated scf accuracy    <          7.8E-10 Ry

     iteration # 23     ecut=    30.00 Ry     beta= 0.70
     Davidson diagonalization with overlap
     ethr =  6.97E-13,  avg # of iterations =  4.0

     total cpu time spent up to now is       44.6 secs

     total energy              =    -917.77952258 Ry
     Harris-Foulkes estimate   =    -917.77952258 Ry
     estimated scf accuracy    <          7.1E-10 Ry

     iteration # 24     ecut=    30.00 Ry     beta= 0.70
     Davidson diagonalization with overlap
     ethr =  6.34E-13,  avg # of iterations =  3.8

     total cpu time spent up to now is       44.9 secs

     End of self-consistent calculation

          k = 0.0000 0.0000 0.0000 (  3419 PWs)   bands (ev):

   -50.1972 -50.1929 -50.0708 -50.0691 -25.1846 -25.0550 -24.9583 -24.9151
   -24.8783 -24.7756 -24.7705 -24.7674 -24.4791 -24.4660 -24.4585 -24.2509
    -6.8830  -6.4800  -5.6083  -5.5377  -4.5385  -3.9730  -3.7528  -3.7409
    -2.9776  -2.8888   6.7080   6.7658   7.5578   7.6678   7.8914   9.0444
     9.1151   9.5566   9.6140  10.0992  10.1875  10.3199  10.4497  10.5565
    10.6986  10.8788  11.1393  11.3262  11.3527  11.4736  11.4798  11.7501
    11.8264  12.2136  12.4327  12.6413  13.7839  13.9133  14.0066  14.0525

          k = 0.0000 0.3598 0.0000 (  3405 PWs)   bands (ev):

   -50.1935 -50.1880 -50.0733 -50.0376 -25.2181 -25.1424 -25.1180 -25.0776
   -24.9541 -24.7910 -24.7621 -24.7492 -24.4779 -24.4627 -24.4513 -24.2432
    -6.3400  -6.0090  -5.4170  -5.3528  -3.8438  -3.3986  -2.8290  -2.6344
    -2.2712  -2.1580   6.1573   6.2584   6.5187   6.8670   7.0414   7.0749
     7.1099   7.6349   7.7457   7.9124   8.4057   8.6085   9.2764   9.9329
    10.0839  10.2718  10.8815  11.1649  11.2913  11.5927  11.9780  12.1577
    12.4012  12.8469  13.1156  13.4340  13.5536  13.6070  13.8741  14.6765

          k = 0.3849 0.0000 0.0000 (  3414 PWs)   bands (ev):

   -50.1576 -50.1326 -50.0935 -50.0740 -25.2549 -25.1701 -25.1612 -25.1161
   -24.9191 -24.8818 -24.8816 -24.8312 -24.5768 -24.4581 -24.4453 -24.2758
    -5.6639  -5.1140  -4.6018  -4.2784  -4.1946  -3.8210  -3.6219  -3.4869
    -2.8112  -2.6807   5.9908   6.2938   6.3651   7.0837   7.7065   7.7802
     7.7940   8.2567   8.8218   9.5514   9.6197   9.7754   9.9983  10.2224
    10.2628  10.3494  10.4608  11.0900  11.1230  11.4253  11.5337  11.7367
    11.9201  12.3195  12.3272  12.8182  14.0947  14.1213  14.1552  14.3062

          k = 0.3849 0.3598 0.0000 (  3431 PWs)   bands (ev):

   -50.1478 -50.1335 -50.0973 -50.0837 -25.2657 -25.1976 -25.1583 -25.1227
   -25.0656 -25.0141 -24.9880 -24.9138 -24.5688 -24.4565 -24.4409 -24.2689
    -5.0796  -4.6116  -4.3575  -4.0957  -3.5508  -3.1121  -2.5791  -2.3414
    -2.2789  -2.1334   5.6618   5.8555   5.8608   6.0789   6.0942   6.6339
     6.8237   7.3520   7.4676   7.7809   7.7824   8.4125   8.6834   9.0057
     9.4263   9.5178   9.9936  10.2039  10.3750  11.1267  12.0132  12.7355
    12.7955  12.8232  13.2833  13.4351  13.5738  13.6126  14.2243  14.4988

     highest occupied level (ev):    14.6765

!    total energy              =    -917.77952258 Ry
     Harris-Foulkes estimate   =    -917.77952258 Ry
     estimated scf accuracy    <          7.7E-11 Ry

     The total energy is the sum of the following terms:

     one-electron contribution =    -351.92558387 Ry
     hartree contribution      =     254.55958016 Ry
     xc contribution           =    -179.45915161 Ry
     ewald contribution        =    -640.71321338 Ry
     Dispersion Correction     =      -0.24115388 Ry

     convergence has been achieved in  24 iterations

     Forces acting on atoms (cartesian axes, Ry/au):

     atom    1 type  1   force =     0.00000000    0.04503719    0.02297154
     atom    2 type  1   force =     0.00000000   -0.04503719   -0.02297154
     atom    3 type  1   force =     0.00000000   -0.04503719    0.02297154
     atom    4 type  1   force =    -0.00000000    0.04503719   -0.02297154
     atom    5 type  2   force =     0.00000000    0.09860037   -0.07052421
     atom    6 type  2   force =     0.00000000   -0.09860037    0.07052421
     atom    7 type  2   force =     0.00000000   -0.09860037   -0.07052421
     atom    8 type  2   force =     0.00000000    0.09860037    0.07052421
     atom    9 type  2   force =     0.00000000   -0.26583531   -0.01146568
     atom   10 type  2   force =     0.00000000    0.26583531    0.01146568
     atom   11 type  2   force =     0.00000000    0.26583531   -0.01146568
     atom   12 type  2   force =    -0.00000000   -0.11197000   -0.00000000
     atom   13 type  2   force =     0.00000000    0.11197000   -0.00000000
     atom   14 type  2   force =     0.00000000   -0.26583531    0.01146568

     Total force =     0.614232     Total SCF correction =     0.000015


     Computing stress (Cartesian axis) and pressure

          total   stress  (Ry/bohr**3)                   (kbar)     P=  998.12
   0.00405601   0.00000000   0.00000000        596.66      0.00      0.00
   0.00000000   0.01282820   0.00000000          0.00   1887.09      0.00
   0.00000000   0.00000000   0.00347103          0.00      0.00    510.61


     number of scf cycles    =   4
     number of bfgs steps    =   3

     enthalpy old            =    -917.1284684885 Ry
     enthalpy new            =    -917.7795225802 Ry

     CASE: enthalpy_new < enthalpy_old

     new trust radius        =       0.5354478424 bohr
     new conv_thr            =            1.0E-10 Ry

     new unit-cell volume =    756.55973 a.u.^3 (   112.11058 Ang^3 )
     density =      5.38787 g/cm^3

CELL_PARAMETERS (alat=  6.68268247)
   0.882256763   0.000000000   0.000000000
   0.000000000   1.022474669   0.000000000
   0.000000000   0.000000000   2.810238571

ATOMIC_POSITIONS (crystal)
V        0.000000000   0.383101140   0.650465769
V        0.500000210   0.616899280   0.849534861
V        0.500000210   0.616899280   0.150465560
V       -0.000000000   0.383101140   0.349534650
O        0.500000210   0.519235506   0.673292841
O        0.000000000   0.480764914   0.826707789
O        0.000000000   0.480764914   0.173292632
O        0.500000210   0.519235506   0.326707579
O        0.000000000  -0.038905840   0.355700492
O        0.500000210   1.038906260   0.144299719
O        0.500000210   1.038906260   0.855700701
O        0.500000210   0.468703823  -0.000000000
O       -0.000000000   0.531296597   0.500000210
O        0.000000000  -0.038905840   0.644299929



     Writing output data file v2o5.save/
     NEW-OLD atomic charge density approx. for the potential

     Check: negative core charge=   -0.000684
     extrapolated charge  124.99993, renormalised to  112.00000

     total cpu time spent up to now is       45.7 secs

     Self-consistent Calculation

     iteration #  1     ecut=    30.00 Ry     beta= 0.70
     Davidson diagonalization with overlap
     ethr =  1.00E-06,  avg # of iterations = 11.0

     total cpu time spent up to now is       47.1 secs

     total energy              =    -908.41190591 Ry
     Harris-Foulkes estimate   =    -881.25574086 Ry
     estimated scf accuracy    <       7.10743321 Ry

     iteration #  2     ecut=    30.00 Ry     beta= 0.70
     Davidson diagonalization with overlap
     ethr =  6.35E-03,  avg # of iterations =  9.5

     total cpu time spent up to now is       48.0 secs

     total energy              =    -907.97658719 Ry
     Harris-Foulkes estimate   =    -933.98637780 Ry
     estimated scf accuracy    <     115.52188165 Ry

     iteration #  3     ecut=    30.00 Ry     beta= 0.70
     Davidson diagonalization with overlap
     ethr =  6.35E-03,  avg # of iterations =  5.0

     total cpu time spent up to now is       48.7 secs

     total energy              =    -918.26948043 Ry
     Harris-Foulkes estimate   =    -919.31514113 Ry
     estimated scf accuracy    <       2.80781970 Ry

     iteration #  4     ecut=    30.00 Ry     beta= 0.70
     Davidson diagonalization with overlap
     ethr =  2.51E-03,  avg # of iterations =  2.0

     total cpu time spent up to now is       48.9 secs

     total energy              =    -918.26539305 Ry
     Harris-Foulkes estimate   =    -918.43582859 Ry
     estimated scf accuracy    <       0.71763613 Ry

     iteration #  5     ecut=    30.00 Ry     beta= 0.70
     Davidson diagonalization with overlap
     ethr =  6.41E-04,  avg # of iterations =  3.8

     total cpu time spent up to now is       49.3 secs

     total energy              =    -918.22178749 Ry
     Harris-Foulkes estimate   =    -918.32575972 Ry
     estimated scf accuracy    <       0.49400535 Ry

     iteration #  6     ecut=    30.00 Ry     beta= 0.70
     Davidson diagonalization with overlap
     ethr =  4.41E-04,  avg # of iterations =  1.0

     total cpu time spent up to now is       49.5 secs

     total energy              =    -918.09391586 Ry
     Harris-Foulkes estimate   =    -918.23216141 Ry
     estimated scf accuracy    <       0.30114744 Ry

     iteration #  7     ecut=    30.00 Ry     beta= 0.70
     Davidson diagonalization with overlap
     ethr =  2.69E-04,  avg # of iterations =  4.0

     total cpu time spent up to now is       49.9 secs

     total energy              =    -918.13786365 Ry
     Harris-Foulkes estimate   =    -918.13782617 Ry
     estimated scf accuracy    <       0.01413235 Ry

     iteration #  8     ecut=    30.00 Ry     beta= 0.70
     Davidson diagonalization with overlap
     ethr =  1.26E-05,  avg # of iterations =  4.0

     total cpu time spent up to now is       50.3 secs

     total energy              =    -918.14168289 Ry
     Harris-Foulkes estimate   =    -918.14161705 Ry
     estimated scf accuracy    <       0.01191617 Ry

     iteration #  9     ecut=    30.00 Ry     beta= 0.70
     Davidson diagonalization with overlap
     ethr =  1.06E-05,  avg # of iterations =  1.0

     total cpu time spent up to now is       50.6 secs

     total energy              =    -918.13981086 Ry
     Harris-Foulkes estimate   =    -918.14174440 Ry
     estimated scf accuracy    <       0.01197305 Ry

     iteration # 10     ecut=    30.00 Ry     beta= 0.70
     Davidson diagonalization with overlap
     ethr =  1.06E-05,  avg # of iterations =  3.5

     total cpu time spent up to now is       50.9 secs

     total energy              =    -918.14097684 Ry
     Harris-Foulkes estimate   =    -918.14184683 Ry
     estimated scf accuracy    <       0.01394678 Ry

     iteration # 11     ecut=    30.00 Ry     beta= 0.70
     Davidson diagonalization with overlap
     ethr =  1.06E-05,  avg # of iterations =  2.2

     total cpu time spent up to now is       51.2 secs

     total energy              =    -918.14270241 Ry
     Harris-Foulkes estimate   =    -918.14161048 Ry
     estimated scf accuracy    <       0.01389347 Ry

     iteration # 12     ecut=    30.00 Ry     beta= 0.70
     Davidson diagonalization with overlap
     ethr =  1.06E-05,  avg # of iterations =  3.0

     total cpu time spent up to now is       51.5 secs

     total energy              =    -918.14387095 Ry
     Harris-Foulkes estimate   =    -918.14322884 Ry
     estimated scf accuracy    <       0.02003817 Ry

     iteration # 13     ecut=    30.00 Ry     beta= 0.70
     Davidson diagonalization with overlap
     ethr =  1.06E-05,  avg # of iterations =  1.0

     total cpu time spent up to now is       51.7 secs

     total energy              =    -918.14446767 Ry
     Harris-Foulkes estimate   =    -918.14413151 Ry
     estimated scf accuracy    <       0.02282076 Ry

     iteration # 14     ecut=    30.00 Ry     beta= 0.70
     Davidson diagonalization with overlap
     ethr =  1.06E-05,  avg # of iterations =  3.0

     total cpu time spent up to now is       52.0 secs

     total energy              =    -918.14431069 Ry
     Harris-Foulkes estimate   =    -918.14498073 Ry
     estimated scf accuracy    <       0.02863429 Ry

     iteration # 15     ecut=    30.00 Ry     beta= 0.70
     Davidson diagonalization with overlap
     ethr =  1.06E-05,  avg # of iterations =  1.0

     total cpu time spent up to now is       52.2 secs

     total energy              =    -918.14374740 Ry
     Harris-Foulkes estimate   =    -918.14445808 Ry
     estimated scf accuracy    <       0.02829442 Ry

     iteration # 16     ecut=    30.00 Ry     beta= 0.70
     Davidson diagonalization with overlap
     ethr =  1.06E-05,  avg # of iterations =  1.0

     total cpu time spent up to now is       52.4 secs

     total energy              =    -918.12226044 Ry
     Harris-Foulkes estimate   =    -918.14379911 Ry
     estimated scf accuracy    <       0.02765572 Ry

     iteration # 17     ecut=    30.00 Ry     beta= 0.70
     Davidson diagonalization with overlap
     ethr =  1.06E-05,  avg # of iterations =  5.8

     total cpu time spent up to now is       53.1 secs

     total energy              =    -918.09598309 Ry
     Harris-Foulkes estimate   =    -918.21663105 Ry
     estimated scf accuracy    <       0.49614635 Ry

     iteration # 18     ecut=    30.00 Ry     beta= 0.70
     Davidson diagonalization with overlap
     ethr =  1.06E-05,  avg # of iterations =  5.0

     total cpu time spent up to now is       53.7 secs

     total energy              =    -918.13429524 Ry
     Harris-Foulkes estimate   =    -918.14055228 Ry
     estimated scf accuracy    <       0.01732146 Ry

     iteration # 19     ecut=    30.00 Ry     beta= 0.70
     Davidson diagonalization with overlap
     ethr =  1.06E-05,  avg # of iterations =  4.0

     total cpu time spent up to now is       54.2 secs

     total energy              =    -918.13766791 Ry
     Harris-Foulkes estimate   =    -918.13777122 Ry
     estimated scf accuracy    <       0.00059121 Ry

     iteration # 20     ecut=    30.00 Ry     beta= 0.70
     Davidson diagonalization with overlap
     ethr =  5.28E-07,  avg # of iterations =  3.0

     total cpu time spent up to now is       54.5 secs

     total energy              =    -918.13760724 Ry
     Harris-Foulkes estimate   =    -918.13770301 Ry
     estimated scf accuracy    <       0.00033352 Ry

     iteration # 21     ecut=    30.00 Ry     beta= 0.70
     Davidson diagonalization with overlap
     ethr =  2.98E-07,  avg # of iterations =  4.0

     total cpu time spent up to now is       54.9 secs

     total energy              =    -918.13768209 Ry
     Harris-Foulkes estimate   =    -918.13768794 Ry
     estimated scf accuracy    <       0.00001328 Ry

     iteration # 22     ecut=    30.00 Ry     beta= 0.70
     Davidson diagonalization with overlap
     ethr =  1.19E-08,  avg # of iterations =  4.2

     total cpu time spent up to now is       55.4 secs

     total energy              =    -918.13768603 Ry
     Harris-Foulkes estimate   =    -918.13768658 Ry
     estimated scf accuracy    <       0.00000253 Ry

     iteration # 23     ecut=    30.00 Ry     beta= 0.70
     Davidson diagonalization with overlap
     ethr =  2.26E-09,  avg # of iterations =  2.8

     total cpu time spent up to now is       55.7 secs

     total energy              =    -918.13768583 Ry
     Harris-Foulkes estimate   =    -918.13768612 Ry
     estimated scf accuracy    <       0.00000120 Ry

     iteration # 24     ecut=    30.00 Ry     beta= 0.70
     Davidson diagonalization with overlap
     ethr =  1.07E-09,  avg # of iterations =  4.0

     total cpu time spent up to now is       56.2 secs

     total energy              =    -918.13768611 Ry
     Harris-Foulkes estimate   =    -918.13768612 Ry
     estimated scf accuracy    <       0.00000002 Ry

     iteration # 25     ecut=    30.00 Ry     beta= 0.70
     Davidson diagonalization with overlap
     ethr =  1.84E-11,  avg # of iterations =  5.0

     total cpu time spent up to now is       56.8 secs

     total energy              =    -918.13768612 Ry
     Harris-Foulkes estimate   =    -918.13768612 Ry
     estimated scf accuracy    <          4.9E-09 Ry

     iteration # 26     ecut=    30.00 Ry     beta= 0.70
     Davidson diagonalization with overlap
     ethr =  4.35E-12,  avg # of iterations =  4.0

     total cpu time spent up to now is       57.2 secs

     total energy              =    -918.13768612 Ry
     Harris-Foulkes estimate   =    -918.13768612 Ry
     estimated scf accuracy    <          2.8E-10 Ry

     iteration # 27     ecut=    30.00 Ry     beta= 0.70
     Davidson diagonalization with overlap
     ethr =  2.54E-13,  avg # of iterations =  3.5

     total cpu time spent up to now is       57.6 secs

     total energy              =    -918.13768612 Ry
     Harris-Foulkes estimate   =    -918.13768612 Ry
     estimated scf accuracy    <          2.1E-10 Ry

     iteration # 28     ecut=    30.00 Ry     beta= 0.70
     Davidson diagonalization with overlap
     ethr =  1.87E-13,  avg # of iterations =  3.0

     total cpu time spent up to now is       57.9 secs

     End of self-consistent calculation

          k = 0.0000 0.0000 0.0000 (  3419 PWs)   bands (ev):

   -53.0277 -53.0188 -52.9519 -52.9517 -27.8546 -27.6867 -27.6120 -27.5290
   -27.5263 -27.5053 -27.4945 -27.4492 -27.3172 -27.3166 -27.2899 -27.1605
    -8.7865  -8.4366  -7.5024  -7.4349  -6.4841  -5.9919  -5.3634  -5.1652
    -5.1457  -4.8838   4.8168   5.0558   5.3354   5.3577   5.8793   6.4354
     6.4551   6.9261   7.5249   7.5290   7.9692   8.1472   8.2499   8.2628
     8.8384   8.9090   8.9502   9.2979   9.5517   9.5705   9.6204   9.6620
     9.7016  10.6984  10.7760  10.7840  10.9129  10.9308  11.0462  11.0820

          k = 0.0000 0.3260 0.0000 (  3405 PWs)   bands (ev):

   -53.0267 -53.0213 -52.9602 -52.9198 -27.8460 -27.6961 -27.6518 -27.5563
   -27.5281 -27.5227 -27.5140 -27.4646 -27.3241 -27.3156 -27.3072 -27.1602
    -8.4698  -8.1776  -7.3834  -7.3321  -6.2519  -5.8662  -5.0178  -4.9879
    -4.4654  -4.4641   4.6083   4.7384   4.7807   5.0241   5.0515   5.0720
     5.7580   5.8015   5.8732   5.9968   6.6705   6.9798   7.6114   8.1635
     8.6103   8.7551   8.8506   8.9500   9.2376   9.5781  10.0405  10.4223
    10.5718  10.8270  11.0851  11.1957  11.2740  11.3104  11.4801  12.1095

          k = 0.3778 0.0000 0.0000 (  3414 PWs)   bands (ev):

   -53.0135 -52.9757 -52.9575 -52.9415 -27.8929 -27.8281 -27.7922 -27.7686
   -27.5497 -27.5245 -27.4743 -27.4453 -27.3853 -27.3148 -27.3002 -27.1939
    -7.7100  -7.2696  -6.7002  -6.5407  -6.3587  -5.8145  -5.2889  -5.2523
    -5.0363  -4.8701   4.3157   4.4973   4.5759   5.4222   5.7869   5.7890
     5.9205   6.1774   7.0076   7.1235   7.3330   7.9896   8.0091   8.2309
     8.6000   8.6011   8.7423   8.8417   8.9924   9.2947   9.7060   9.9280
    10.2368  10.2498  10.4390  10.7307  11.1349  11.2055  11.2869  11.4296

          k = 0.3778 0.3260 0.0000 (  3431 PWs)   bands (ev):

   -52.9982 -52.9884 -52.9764 -52.9612 -27.8899 -27.8261 -27.7957 -27.7729
   -27.5859 -27.5520 -27.5233 -27.4827 -27.3956 -27.3215 -27.3148 -27.1940
    -7.4336  -7.0765  -6.6788  -6.5217  -6.0369  -5.7053  -4.8010  -4.7455
    -4.5189  -4.4941   4.1876   4.3022   4.4677   4.7542   4.9017   5.1394
     5.2220   5.6805   5.7239   5.9182   6.0928   6.5991   6.9306   7.4782
     7.8157   8.0025   8.3760   8.4230   8.9393   9.5142  10.0039  10.5828
    10.6070  10.8212  10.9222  11.1937  11.2080  11.3699  11.7662  11.9332

     highest occupied level (ev):    12.1095

!    total energy              =    -918.13768612 Ry
     Harris-Foulkes estimate   =    -918.13768612 Ry
     estimated scf accuracy    <          1.6E-11 Ry

     The total energy is the sum of the following terms:

     one-electron contribution =    -380.61778020 Ry
     hartree contribution      =     258.29271089 Ry
     xc contribution           =    -177.22055221 Ry
     ewald contribution        =    -618.38582696 Ry
     Dispersion Correction     =      -0.20623765 Ry

     convergence has been achieved in  28 iterations

     Forces acting on atoms (cartesian axes, Ry/au):

     atom    1 type  1   force =    -0.00000000   -0.09655407    0.04436710
     atom    2 type  1   force =     0.00000000    0.09655407   -0.04436710
     atom    3 type  1   force =     0.00000000    0.09655407    0.04436710
     atom    4 type  1   force =     0.00000000   -0.09655407   -0.04436710
     atom    5 type  2   force =     0.00000000    0.08413162   -0.02583029
     atom    6 type  2   force =    -0.00000000   -0.08413162    0.02583029
     atom    7 type  2   force =    -0.00000000   -0.08413162   -0.02583029
     atom    8 type  2   force =     0.00000000    0.08413162    0.02583029
     atom    9 type  2   force =     0.00000000   -0.09438011   -0.00611936
     atom   10 type  2   force =     0.00000000    0.09438011    0.00611936
     atom   11 type  2   force =     0.00000000    0.09438011   -0.00611936
     atom   12 type  2   force =     0.00000000   -0.11212876    0.00000000
     atom   13 type  2   force =     0.00000000    0.11212876    0.00000000
     atom   14 type  2   force =     0.00000000   -0.09438011    0.00611936

     Total force =     0.370232     Total SCF correction =     0.000013


     Computing stress (Cartesian axis) and pressure

          total   stress  (Ry/bohr**3)                   (kbar)     P= -384.58
  -0.00313546   0.00000000   0.00000000       -461.24      0.00      0.00
   0.00000000  -0.00219817   0.00000000          0.00   -323.36      0.00
   0.00000000   0.00000000  -0.00250933          0.00      0.00   -369.14


     number of scf cycles    =   5
     number of bfgs steps    =   4

     enthalpy old            =    -917.7795225802 Ry
     enthalpy new            =    -918.1376861203 Ry

     CASE: enthalpy_new < enthalpy_old

     new trust radius        =       0.0990723361 bohr
     new conv_thr            =            1.0E-10 Ry

     new unit-cell volume =    731.48431 a.u.^3 (   108.39479 Ang^3 )
     density =      5.57257 g/cm^3

CELL_PARAMETERS (alat=  6.68268247)
   0.866367791   0.000000000   0.000000000
   0.000000000   1.019491213   0.000000000
   0.000000000   0.000000000   2.775024072

ATOMIC_POSITIONS (crystal)
V        0.000000000   0.372572171   0.651821751
V        0.500000224   0.627428277   0.848178919
V        0.500000224   0.627428277   0.151821528
V        0.000000000   0.372572171   0.348178695
O        0.500000224   0.529442285   0.671132113
O       -0.000000000   0.470558163   0.828868557
O       -0.000000000   0.470558163   0.171131890
O        0.500000224   0.529442285   0.328868334
O        0.000000000  -0.052754179   0.355541753
O        0.500000224   1.052754626   0.144458472
O        0.500000224   1.052754626   0.855541976
O        0.500000224   0.455010506  -0.000000000
O       -0.000000000   0.544989941   0.500000224
O        0.000000000  -0.052754179   0.644458696



     Writing output data file v2o5.save/
     NEW-OLD atomic charge density approx. for the potential

     Check: negative core charge=   -0.000597
     extrapolated charge  108.16076, renormalised to  112.00000

     total cpu time spent up to now is       58.7 secs

     Self-consistent Calculation

     iteration #  1     ecut=    30.00 Ry     beta= 0.70
     Davidson diagonalization with overlap
     ethr =  1.00E-06,  avg # of iterations = 14.5

     total cpu time spent up to now is       60.4 secs

     total energy              =    -915.52625507 Ry
     Harris-Foulkes estimate   =    -929.24569716 Ry
     estimated scf accuracy    <       2.65825758 Ry

     iteration #  2     ecut=    30.00 Ry     beta= 0.70
     Davidson diagonalization with overlap
     ethr =  2.37E-03,  avg # of iterations =  4.0

     total cpu time spent up to now is       61.0 secs

     total energy              =    -917.73616369 Ry
     Harris-Foulkes estimate   =    -922.37121573 Ry
     estimated scf accuracy    <      13.03314530 Ry

     iteration #  3     ecut=    30.00 Ry     beta= 0.70
     Davidson diagonalization with overlap
     ethr =  2.37E-03,  avg # of iterations =  4.0

     total cpu time spent up to now is       61.6 secs

     total energy              =    -918.33636767 Ry
     Harris-Foulkes estimate   =    -918.72235669 Ry
     estimated scf accuracy    <       1.78591190 Ry

     iteration #  4     ecut=    30.00 Ry     beta= 0.70
     Davidson diagonalization with overlap
     ethr =  1.59E-03,  avg # of iterations =  1.2

     total cpu time spent up to now is       61.8 secs

     total energy              =    -918.11268481 Ry
     Harris-Foulkes estimate   =    -918.37393996 Ry
     estimated scf accuracy    <       1.00596848 Ry

     iteration #  5     ecut=    30.00 Ry     beta= 0.70
     Davidson diagonalization with overlap
     ethr =  8.98E-04,  avg # of iterations =  3.8

     total cpu time spent up to now is       62.2 secs

     total energy              =    -918.29024669 Ry
     Harris-Foulkes estimate   =    -918.29186146 Ry
     estimated scf accuracy    <       0.02265742 Ry

     iteration #  6     ecut=    30.00 Ry     beta= 0.70
     Davidson diagonalization with overlap
     ethr =  2.02E-05,  avg # of iterations =  4.2

     total cpu time spent up to now is       62.7 secs

[...]
     (criteria: energy <  1.0E-04 Ry, force <  1.0E-05Ry/Bohr, cell <  5.0E-01kbar)

     End of BFGS Geometry Optimization

     Final enthalpy =    -919.5778930134 Ry
Begin final coordinates
     new unit-cell volume =    614.91121 a.u.^3 (    91.12044 Ang^3 )
     density =      6.62900 g/cm^3

CELL_PARAMETERS (alat=  6.68268247)
   0.766334672   0.000000000   0.000000000
   0.000000000   0.984185525   0.000000000
   0.000000000   0.000000000   2.731898037

ATOMIC_POSITIONS (crystal)
V       -0.000000000   0.245645773   0.651220750
V        0.500000365   0.754354957   0.848780345
V        0.500000365   0.754354957   0.151220386
V        0.000000000   0.245645773   0.348779980
O        0.500000365   0.536768869   0.570893607
O       -0.000000000   0.463231862   0.929107488
O        0.000000000   0.463231862   0.070893243
O        0.500000365   0.536768869   0.429107122
O        0.000000000  -0.240803745   0.276417501
O        0.500000365   1.240804476   0.223582866
O        0.500000365   1.240804476   0.776417865
O        0.500000365   0.985603354   0.000000000
O       -0.000000000   0.014397377   0.500000365
O        0.000000000  -0.240803745   0.723583231
End final coordinates



     Writing output data file v2o5.save/

     A final scf calculation at the relaxed structure.
     The G-vectors are recalculated for the final unit cell
     Results may differ from those at the preceding step.

     Parallelization info
     --------------------
     sticks:   dense  smooth     PW     G-vecs:    dense   smooth      PW
     Min          10      10      2                  420      420      58
     Max          11      11      3                  430      430      75
     Sum         323     323     93                13625    13625    2211



     bravais-lattice index     =            8
     lattice parameter (alat)  =       6.6827  a.u.
     unit-cell volume          =     614.9112 (a.u.)^3
     number of atoms/cell      =           14
     number of atomic types    =            2
     number of electrons       =       112.00
     number of Kohn-Sham states=           56
     kinetic-energy cutoff     =      30.0000  Ry
     charge density cutoff     =     120.0000  Ry
     convergence threshold     =      1.0E-12
     mixing beta               =       0.7000
     number of iterations used =            8  plain     mixing
     Exchange-correlation      = PBE ( 1  4  3  4 0 0)

     celldm(1)=   6.682682  celldm(2)=   1.263659  celldm(3)=   3.271025
     celldm(4)=   0.000000  celldm(5)=   0.000000  celldm(6)=   0.000000

     crystal axes: (cart. coord. in units of alat)
               a(1) = (   0.766335   0.000000   0.000000 )  
               a(2) = (   0.000000   0.984186   0.000000 )  
               a(3) = (   0.000000   0.000000   2.731898 )  

     reciprocal axes: (cart. coord. in units 2 pi/alat)
               b(1) = (  1.304913  0.000000  0.000000 )  
               b(2) = (  0.000000  1.016069  0.000000 )  
               b(3) = (  0.000000  0.000000  0.366046 )  


     PseudoPot. # 1 for V  read from file:
     /home/mpicuntureo/pseudos/v.nc.upf
     MD5 check sum: 40fb93c06b4f9d8c28c5ccd071294a04
     Pseudo is Norm-conserving + core correction, Zval = 13.0
     Generated using ONCVPSP code by D. R. Hamann
     Using radial grid of 1536 points,  6 beta functions with: 
                l(1) =   0
                l(2) =   0
                l(3) =   1
                l(4) =   1
                l(5) =   2
                l(6) =   2

     PseudoPot. # 2 for O  read from file:
     /home/mpicuntureo/pseudos/o.nc.upf
     MD5 check sum: 3e3f909f7470e8921608ab6b1f57bbae
     Pseudo is Norm-conserving + core correction, Zval =  6.0
     Generated using ONCVPSP code by D. R. Hamann
     Using radial grid of  936 points,  5 beta functions with: 
                l(1) =   0
                l(2) =   0
                l(3) =   1
                l(4) =   1
                l(5) =   2

     atomic species   valence    mass     pseudopotential
        V             13.00    50.94150     V ( 1.00)
        O              6.00    15.99940     O ( 1.00)

      8 Sym. Ops., with inversion, found ( 4 have fractional translation)



   Cartesian axes

     site n.     atom                  positions (alat units)
         1           V   tau(   1) = (  -0.0000000   0.2417610   1.7790687  )
         2           V   tau(   2) = (   0.3831676   0.7424252   2.3187814  )
         3           V   tau(   3) = (   0.3831676   0.7424252   0.4131187  )
         4           V   tau(   4) = (   0.0000000   0.2417610   0.9528313  )
         5           O   tau(   5) = (   0.3831676   0.5282802   1.5596231  )
         6           O   tau(   6) = (  -0.0000000   0.4559061   2.5382269  )
         7           O   tau(   7) = (   0.0000000   0.4559061   0.1936731  )
         8           O   tau(   8) = (   0.3831676   0.5282802   1.1722769  )
         9           O   tau(   9) = (   0.0000000  -0.2369956   0.7551444  )
        10           O   tau(  10) = (   0.3831676   1.2211818   0.6108056  )
        11           O   tau(  11) = (   0.3831676   1.2211818   2.1210944  )
        12           O   tau(  12) = (   0.3831676   0.9700166   0.0000000  )
        13           O   tau(  13) = (  -0.0000000   0.0141697   1.3659500  )
        14           O   tau(  14) = (   0.0000000  -0.2369956   1.9767556  )

     number of k points=     4
                       cart. coord. in units 2pi/alat
        k(    1) = (   0.0000000   0.0000000   0.0000000), wk =   0.2222222
        k(    2) = (   0.0000000   0.3386895   0.0000000), wk =   0.4444444
        k(    3) = (   0.4349710   0.0000000   0.0000000), wk =   0.4444444
        k(    4) = (   0.4349710   0.3386895   0.0000000), wk =   0.8888889

     Dense  grid:    13625 G-vectors     FFT dimensions: (  18,  24,  64)

     Estimated max dynamical RAM per process >       5.08 MB

     Estimated total dynamical RAM >     162.48 MB

     Check: negative core charge=   -0.002875

     Initial potential from superposition of free atoms

     starting charge  111.99579, renormalised to  112.00000
     Starting wfcs are   80 randomized atomic wfcs

     total cpu time spent up to now is      452.8 secs

     Self-consistent Calculation

     iteration #  1     ecut=    30.00 Ry     beta= 0.70
     Davidson diagonalization with overlap
     ethr =  1.00E-06,  avg # of iterations = 10.5

     total cpu time spent up to now is      453.7 secs

     total energy              =    -907.92485555 Ry
     Harris-Foulkes estimate   =    -911.51721822 Ry
     estimated scf accuracy    <       4.80118340 Ry

     iteration #  2     ecut=    30.00 Ry     beta= 0.70
     Davidson diagonalization with overlap
     ethr =  4.29E-03,  avg # of iterations =  4.5

     total cpu time spent up to now is      454.1 secs

     total energy              =    -905.85332476 Ry
     Harris-Foulkes estimate   =    -912.70726462 Ry
     estimated scf accuracy    <      18.77220248 Ry

     iteration #  3     ecut=    30.00 Ry     beta= 0.70
     Davidson diagonalization with overlap
     ethr =  4.29E-03,  avg # of iterations =  4.8

     total cpu time spent up to now is      454.4 secs

     total energy              =    -909.85255591 Ry
     Harris-Foulkes estimate   =    -910.36629902 Ry
     estimated scf accuracy    <       1.54861291 Ry

     iteration #  4     ecut=    30.00 Ry     beta= 0.70
     Davidson diagonalization with overlap
     ethr =  1.38E-03,  avg # of iterations =  3.8

     total cpu time spent up to now is      454.6 secs

     total energy              =    -909.99681688 Ry
     Harris-Foulkes estimate   =    -910.07647562 Ry
     estimated scf accuracy    <       0.21790557 Ry

     iteration #  5     ecut=    30.00 Ry     beta= 0.70
     Davidson diagonalization with overlap
     ethr =  1.95E-04,  avg # of iterations =  4.2

     total cpu time spent up to now is      454.8 secs

     total energy              =    -910.01878391 Ry
     Harris-Foulkes estimate   =    -910.02736956 Ry
     estimated scf accuracy    <       0.02466809 Ry

     iteration #  6     ecut=    30.00 Ry     beta= 0.70
     Davidson diagonalization with overlap
     ethr =  2.20E-05,  avg # of iterations =  4.2

     total cpu time spent up to now is      455.1 secs

     total energy              =    -910.02744982 Ry
     Harris-Foulkes estimate   =    -910.02787902 Ry
     estimated scf accuracy    <       0.00144976 Ry

     iteration #  7     ecut=    30.00 Ry     beta= 0.70
     Davidson diagonalization with overlap
     ethr =  1.29E-06,  avg # of iterations =  6.8

     total cpu time spent up to now is      455.4 secs

     total energy              =    -910.03206976 Ry
     Harris-Foulkes estimate   =    -910.03251460 Ry
     estimated scf accuracy    <       0.00303396 Ry

     iteration #  8     ecut=    30.00 Ry     beta= 0.70
     Davidson diagonalization with overlap
     ethr =  1.29E-06,  avg # of iterations =  2.5

     total cpu time spent up to now is      455.6 secs

     total energy              =    -910.03178989 Ry
     Harris-Foulkes estimate   =    -910.03212703 Ry
     estimated scf accuracy    <       0.00149358 Ry

     iteration #  9     ecut=    30.00 Ry     beta= 0.70
     Davidson diagonalization with overlap
     ethr =  1.29E-06,  avg # of iterations =  3.2

     total cpu time spent up to now is      455.8 secs

     total energy              =    -910.03185698 Ry
     Harris-Foulkes estimate   =    -910.03191413 Ry
     estimated scf accuracy    <       0.00019222 Ry

     iteration # 10     ecut=    30.00 Ry     beta= 0.70
     Davidson diagonalization with overlap
     ethr =  1.72E-07,  avg # of iterations =  4.5

     total cpu time spent up to now is      456.0 secs

     total energy              =    -910.03188865 Ry
     Harris-Foulkes estimate   =    -910.03191863 Ry
     estimated scf accuracy    <       0.00008212 Ry

     iteration # 11     ecut=    30.00 Ry     beta= 0.70
     Davidson diagonalization with overlap
     ethr =  7.33E-08,  avg # of iterations =  3.2

     total cpu time spent up to now is      456.2 secs

     total energy              =    -910.03189613 Ry
     Harris-Foulkes estimate   =    -910.03189819 Ry
     estimated scf accuracy    <       0.00000784 Ry

     iteration # 12     ecut=    30.00 Ry     beta= 0.70
     Davidson diagonalization with overlap
     ethr =  7.00E-09,  avg # of iterations =  4.2

     total cpu time spent up to now is      456.5 secs

     total energy              =    -910.03189773 Ry
     Harris-Foulkes estimate   =    -910.03190082 Ry
     estimated scf accuracy    <       0.00000890 Ry

     iteration # 13     ecut=    30.00 Ry     beta= 0.70
     Davidson diagonalization with overlap
     ethr =  7.00E-09,  avg # of iterations =  4.0

     total cpu time spent up to now is      456.7 secs

     total energy              =    -910.03189868 Ry
     Harris-Foulkes estimate   =    -910.03189884 Ry
     estimated scf accuracy    <       0.00000046 Ry

     iteration # 14     ecut=    30.00 Ry     beta= 0.70
     Davidson diagonalization with overlap
     ethr =  4.13E-10,  avg # of iterations =  4.5

     total cpu time spent up to now is      457.0 secs

     total energy              =    -910.03189888 Ry
     Harris-Foulkes estimate   =    -910.03189889 Ry
     estimated scf accuracy    <       0.00000005 Ry

     iteration # 15     ecut=    30.00 Ry     beta= 0.70
     Davidson diagonalization with overlap
     ethr =  4.37E-11,  avg # of iterations =  2.2

     total cpu time spent up to now is      457.1 secs

     total energy              =    -910.03189888 Ry
     Harris-Foulkes estimate   =    -910.03189888 Ry
     estimated scf accuracy    <       0.00000002 Ry

     iteration # 16     ecut=    30.00 Ry     beta= 0.70
     Davidson diagonalization with overlap
     ethr =  1.95E-11,  avg # of iterations =  4.0

     total cpu time spent up to now is      457.4 secs

     total energy              =    -910.03189888 Ry
     Harris-Foulkes estimate   =    -910.03189888 Ry
     estimated scf accuracy    <          2.2E-10 Ry

     iteration # 17     ecut=    30.00 Ry     beta= 0.70
     Davidson diagonalization with overlap
     ethr =  1.95E-13,  avg # of iterations =  4.8

     total cpu time spent up to now is      457.7 secs

     total energy              =    -910.03189888 Ry
     Harris-Foulkes estimate   =    -910.03189888 Ry
     estimated scf accuracy    <          3.8E-11 Ry

     iteration # 18     ecut=    30.00 Ry     beta= 0.70
     Davidson diagonalization with overlap
     ethr =  1.00E-13,  avg # of iterations =  3.0

     total cpu time spent up to now is      457.9 secs

     total energy              =    -910.03189888 Ry
     Harris-Foulkes estimate   =    -910.03189888 Ry
     estimated scf accuracy    <          2.5E-12 Ry

     iteration # 19     ecut=    30.00 Ry     beta= 0.70
     Davidson diagonalization with overlap
     ethr =  1.00E-13,  avg # of iterations =  1.5

     total cpu time spent up to now is      458.0 secs

     End of self-consistent calculation

          k = 0.0000 0.0000 0.0000 (  1725 PWs)   bands (ev):

   -49.4192 -49.3581 -49.2908 -49.2648 -24.2387 -24.1443 -24.0366 -24.0217
   -24.0189 -23.9496 -23.8793 -23.8235 -23.8022 -23.7466 -23.6704 -23.5510
    -7.6328  -7.2792  -4.8837  -4.0488  -2.3934  -2.2909  -1.2323  -1.1636
     0.0823   1.1313   7.7500   8.6390   9.1031   9.1833  10.5935  10.6071
    11.0592  11.3720  11.3732  11.7148  11.7666  12.0989  13.4042  13.6378
    13.7680  14.1413  14.7779  15.3788  15.3950  16.1308  16.1708  16.3097
    16.5189  16.5465  16.7177  16.7340  17.0381  18.2499  20.0150  20.3678

          k = 0.0000 0.3387 0.0000 (  1708 PWs)   bands (ev):

   -49.3307 -49.3013 -49.2958 -49.2564 -24.2580 -24.1946 -24.1497 -24.0759
   -23.9471 -23.8898 -23.8522 -23.7759 -23.6912 -23.6596 -23.6450 -23.5673
    -7.2919  -7.1173  -4.1173  -3.6907  -2.7823  -2.6761  -1.5640  -1.4491
     0.0875   1.1138   8.0412   9.1930   9.9675   9.9865  10.6736  10.9058
    11.2845  11.7848  11.9327  11.9534  12.3183  12.3699  13.1178  13.4108
    13.5227  13.7794  14.0654  14.4221  14.6575  14.8681  15.4283  15.4401
    15.9185  16.0046  16.5809  16.5966  17.1647  18.2114  19.8750  20.6834

          k = 0.4350 0.0000 0.0000 (  1707 PWs)   bands (ev):

   -49.2718 -49.2654 -49.2633 -49.2197 -24.2021 -24.1000 -24.0768 -24.0457
   -24.0202 -23.9691 -23.9569 -23.9145 -23.9023 -23.8958 -23.8843 -23.7760
    -6.9595  -6.9170  -3.8901  -3.7923  -2.6712  -2.6629  -1.1989  -1.1085
     0.3787   0.6295   8.0898   8.6018   9.9707  10.1169  10.3124  10.3205
    10.5555  10.8292  11.2092  11.5922  12.1915  12.4430  12.8248  13.0414
    13.2967  13.6525  13.7897  14.3705  14.5744  14.6431  14.9097  15.1124
    15.8526  16.1647  16.2619  16.5461  16.7967  17.8551  19.7311  20.1898

          k = 0.4350 0.3387 0.0000 (  1701 PWs)   bands (ev):

   -49.2473 -49.2413 -49.2358 -49.2138 -24.2051 -24.0882 -24.0697 -24.0500
   -24.0414 -23.9903 -23.9485 -23.9049 -23.8680 -23.8580 -23.8417 -23.7898
    -6.8569  -6.8392  -3.3329  -3.2881  -2.6815  -2.6440  -1.3070  -1.2227
     0.3683   0.5249   8.0152   8.4354   9.0826   9.4040   9.5598  10.0511
    10.4406  10.7955  11.0233  11.6203  11.7696  12.5015  13.1115  13.2548
    13.6440  13.8954  14.3524  14.5346  14.5807  14.9447  15.8124  15.9483
    16.1264  16.4309  16.6293  16.9318  17.0075  17.3706  20.7154  20.9593

     highest occupied level (ev):    20.9593

!    total energy              =    -910.03189888 Ry
     Harris-Foulkes estimate   =    -910.03189888 Ry
     estimated scf accuracy    <          1.5E-13 Ry

     The total energy is the sum of the following terms:

     one-electron contribution =    -134.70768137 Ry
     hartree contribution      =     152.36841017 Ry
     xc contribution           =    -174.83329816 Ry
     ewald contribution        =    -752.61005468 Ry
     Dispersion Correction     =      -0.24927484 Ry

     convergence has been achieved in  19 iterations

     Forces acting on atoms (cartesian axes, Ry/au):

     atom    1 type  1   force =     0.00000000   -0.04386945   -0.13413773
     atom    2 type  1   force =     0.00000000    0.04386945    0.13413773
     atom    3 type  1   force =     0.00000000    0.04386945   -0.13413773
     atom    4 type  1   force =     0.00000000   -0.04386945    0.13413773
     atom    5 type  2   force =    -0.00000000    0.06024847   -0.09221615
     atom    6 type  2   force =     0.00000000   -0.06024847    0.09221615
     atom    7 type  2   force =     0.00000000   -0.06024847   -0.09221615
     atom    8 type  2   force =     0.00000000    0.06024847    0.09221615
     atom    9 type  2   force =    -0.00000000   -0.05797236    0.04116430
     atom   10 type  2   force =     0.00000000    0.05797236   -0.04116430
     atom   11 type  2   force =     0.00000000    0.05797236    0.04116430
     atom   12 type  2   force =    -0.00000000   -0.01789238   -0.00000000
     atom   13 type  2   force =     0.00000000    0.01789238   -0.00000000
     atom   14 type  2   force =     0.00000000   -0.05797236   -0.04116430

     Total force =     0.386091     Total SCF correction =     0.000001


     Computing stress (Cartesian axis) and pressure

          total   stress  (Ry/bohr**3)                   (kbar)     P=-4034.81
  -0.02995886   0.00000000   0.00000000      -4407.10      0.00      0.00
   0.00000000  -0.02855611   0.00000000          0.00  -4200.75      0.00
   0.00000000   0.00000000  -0.02376920          0.00      0.00  -3496.57


     Writing output data file v2o5.save/

     init_run     :      0.30s CPU      0.32s WALL (       2 calls)
     electrons    :    406.00s CPU    418.70s WALL (      56 calls)
     update_pot   :      7.05s CPU      7.08s WALL (      54 calls)
     forces       :     12.71s CPU     12.87s WALL (      56 calls)
     stress       :     17.94s CPU     17.98s WALL (      56 calls)

     Called by init_run:
     wfcinit      :      0.16s CPU      0.16s WALL (       2 calls)
     potinit      :      0.04s CPU      0.04s WALL (       2 calls)
     hinit0       :      0.10s CPU      0.10s WALL (       2 calls)

     Called by electrons:
     c_bands      :    384.48s CPU    396.14s WALL (     944 calls)
     sum_band     :     13.59s CPU     14.37s WALL (     944 calls)
     v_of_rho     :      1.30s CPU      1.32s WALL (     989 calls)
     mix_rho      :      0.81s CPU      0.84s WALL (     944 calls)

     Called by c_bands:
     init_us_2    :      0.96s CPU      1.05s WALL (    8008 calls)
     cegterg      :    380.21s CPU    391.26s WALL (    3777 calls)

     Called by sum_band:

     Called by *egterg:
     h_psi        :    138.78s CPU    144.08s WALL (   19556 calls)
     g_psi        :      0.35s CPU      0.35s WALL (   15771 calls)
     cdiaghg      :    162.51s CPU    167.08s WALL (   19287 calls)

     Called by h_psi:
     h_psi:pot    :    138.19s CPU    143.47s WALL (   19556 calls)
     h_psi:calbec :     34.84s CPU     36.57s WALL (   19556 calls)
     vloc_psi     :     80.25s CPU     83.23s WALL (   19556 calls)
     add_vuspsi   :     23.04s CPU     23.62s WALL (   19556 calls)

     General routines
     calbec       :     38.32s CPU     40.20s WALL (   20676 calls)
     fft          :      1.36s CPU      1.38s WALL (   11299 calls)
     ffts         :      0.08s CPU      0.09s WALL (     944 calls)
     fftw         :     88.19s CPU     91.70s WALL ( 1509480 calls)

     Parallel routines
     fft_scatt_xy :      4.02s CPU      4.17s WALL ( 1521723 calls)
     fft_scatt_yz :     64.09s CPU     66.72s WALL ( 1521723 calls)

     PWSCF        :   7m25.35s CPU   7m38.41s WALL


   This run was terminated on:  21:52: 5  17May2024            

=------------------------------------------------------------------------------=
   JOB DONE.
=------------------------------------------------------------------------------=
