 ANIMSTEPS  10
 CRYSTAL 
 PRIMVEC 
  7.1438412540  0.0000000000  0.0000000000
  0.0000000000  9.1704073440  0.0000000000
  0.0000000000  0.0000000000 11.5730648550
 PRIMCOORD   1
   57  1
 V    0.0272291061    1.7090302860    7.5282179658    0.0000008300    0.0000213429   -0.0000017581
 V    1.7937680113    2.7771534519    9.8532766362    0.0000014688    0.0000047003    0.0000064719
 V    1.7937213001    2.8209735694    1.7428874188   -0.0000008517    0.0000021563   -0.0000180412
 V    0.0183135379    1.7732067168    4.0724877226    0.0000026062    0.0000210515    0.0000075831
 O    1.7937815565    2.2511550598    7.8271523309   -0.0000024402    0.0000075712   -0.0000007532
 O    0.0170124223    2.2517924537    9.4733091596   -0.0000003354    0.0000015522   -0.0000023815
 O    0.0217253912    2.3014808671    2.1144110525    0.0000017815   -0.0000020954   -0.0000003569
 O    1.7937467780    2.3216824049    3.7659050895   -0.0000027487    0.0000057461   -0.0000032438
 O    0.0650069121    0.1854516968    4.1204488749   -0.0000006016   -0.0000060027    0.0000055736
 O    1.7936820414    4.4119867486    1.7141446091    0.0000014928   -0.0000005560   -0.0000038556
 O    1.7936938065    4.3689951437    9.8372850883    0.0000011881    0.0000077230    0.0000026805
 O    1.7937484390    2.3466851999    0.0099503477    0.0000016892   -0.0000011510   -0.0000056348
 O   -0.1178758878    2.2839008538    5.8142759870   -0.0000048017   -0.0000068172   -0.0000005251
 O    0.0538401809    0.1215315852    7.4519937847   -0.0000053891   -0.0000047196   -0.0000048204
 V   -0.0259032655    6.3892592749    7.4583889009    0.0000006805   -0.0000192878    0.0000091024
 V    1.7937134493    7.3076460432    9.8345514408    0.0000034650   -0.0000029315    0.0000080709
 V    1.7936147497    7.3372592045    1.6951078878    0.0000029624   -0.0000094554   -0.0000132482
 V   -0.0084461265    6.3972719981    4.0595356769    0.0000012138   -0.0000165980    0.0000021518
 O    1.7937152273    6.6931823147    7.8694934522   -0.0000026951    0.0000003131    0.0000076398
 O   -0.0106846642    6.8651323446    9.4411352151   -0.0000030713    0.0000017156    0.0000059639
 O   -0.0045276407    6.8782373907    2.0822385671   -0.0000000395    0.0000013030   -0.0000019996
 O    1.7936344561    6.7946490768    3.6678528994    0.0000007885    0.0000014339   -0.0000030760
 O   -0.1145012344    4.8073261535    4.2027601023    0.0000058671    0.0000039104    0.0000043548
 O    1.7936240673    8.9263766687    1.6318847261    0.0000017712   -0.0000078963    0.0000036320
 O    1.7937431825    8.8989284455    9.8782097266    0.0000022288    0.0000019245   -0.0000023739
 O    1.7936715320    6.8175422898   -0.0224751855   -0.0000017281   -0.0000060626   -0.0000033353
 O    0.0410413674    6.9443667744    5.7714389103   -0.0000021213   -0.0000132965    0.0000047538
 O   -0.2405859205    4.7977631001    7.2927490243    0.0000038957   -0.0000003870   -0.0000073445
 V    3.5603411212    1.7090422172    7.5282413084    0.0000016202    0.0000147248   -0.0000030439
 V    5.3657317817    2.7402406903    9.8692563637    0.0000020287    0.0000038955    0.0000015333
 V    5.3656463629    2.7758909815    1.7318041176    0.0000022334    0.0000006217   -0.0000135935
 V    3.5691469246    1.7731321786    4.0724605551   -0.0000030223    0.0000144599    0.0000063051
 O    5.3657138081    2.2557214563    7.8667226070   -0.0000015173   -0.0000004408   -0.0000040829
 O    3.5705628563    2.2519459379    9.4733010120   -0.0000015373    0.0000021215    0.0000009591
 O    3.5657363230    2.3015148398    2.1143991884   -0.0000008274   -0.0000031595   -0.0000007976
 O    5.3656500441    2.2530319748    3.6981933836   -0.0000009292   -0.0000025912    0.0000009483
 O    3.5223990080    0.1853679539    4.1203569073    0.0000028140    0.0000025641    0.0000026343
 O    5.3656705416    4.3645668910    1.6671930120   -0.0000027285   -0.0000027742   -0.0000020447
 O    5.3658615913    4.3296322492    9.9053300942   -0.0000085192    0.0000026187    0.0000022796
 O    5.3656829931    2.2610335455    0.0141478012   -0.0000000994   -0.0000003350   -0.0000045847
 O    3.7054477444    2.2836951298    5.8142489885   -0.0000030327    0.0000138310    0.0000028015
 O    3.5337085262    0.1215408093    7.4521361467    0.0000056000   -0.0000055857   -0.0000037978
 V    3.6133056615    6.3891891570    7.4583796701    0.0000050482   -0.0000095174    0.0000096610
 V    5.3656212636    7.4022334473    9.8385680316    0.0000029611    0.0000002440    0.0000073496
 V    5.3655218898    7.4012310925    1.7023615777    0.0000033542   -0.0000065076   -0.0000120123
 V    3.5957166080    6.3973193998    4.0595634435    0.0000000248   -0.0000192771    0.0000014985
 O    5.3656125603    6.9729708856    7.8227488609   -0.0000010353    0.0000041759   -0.0000012889
 O    3.5981041055    6.8650381920    9.4411700272   -0.0000001727    0.0000038423    0.0000027606
 O    3.5917849158    6.8782032680    2.0822346721    0.0000027706    0.0000007877   -0.0000029552
 O    5.3655656257    6.9403920730    3.7072314056   -0.0000000542    0.0000003880    0.0000041143
 O    3.7017520930    4.8073837193    4.2028100724   -0.0000039464   -0.0000019382    0.0000004765
 O    5.3654576256    8.9920634163    1.6579706145    0.0000069976   -0.0000035906    0.0000004576
 O    5.3656318782    8.9945402915    9.8901941025   -0.0000037125    0.0000069007    0.0000070630
 O    5.3656234731    6.9020546368   -0.0192025195   -0.0000030613    0.0000017544   -0.0000036518
 O    3.5463527229    6.9444127735    5.7714735545   -0.0000064079   -0.0000123487    0.0000014244
 O    3.8279856604    4.7977030062    7.2926000880    0.0000018309    0.0000042020    0.0000057116
Li    5.3658280376    3.7003467873    6.2751748852   -0.0000037856    0.0000057468   -0.0000013549
 PRIMCOORD   2
   57  1
 V   -0.0009333211    1.7366042566    7.5131293970   -0.0001842882   -0.0000962481    0.0000721313
 V    1.7816328335    2.7786827987    9.8479687004   -0.0001036759    0.0001043450   -0.0000713554
 V    1.7876905732    2.8065683890    1.7352495292   -0.0000436139    0.0000125041   -0.0000034633
 V    0.0078894234    1.7619689247    4.0646146269   -0.0001026814   -0.0001337689   -0.0000530749
 O    1.7835258402    2.2430455235    7.8388921831   -0.0002080097    0.0004370476   -0.0003997416
 O   -0.0021258716    2.2780177921    9.4658650646   -0.0001133374    0.0000633865    0.0000099553
 O    0.0073708462    2.3018946995    2.1102859797   -0.0000000648    0.0000262244   -0.0000409311
 O    1.7894383226    2.2892709652    3.7445495647   -0.0000452882    0.0001124888    0.0002597941
 O    0.0364215990    0.1730125983    4.1100193431   -0.0000388342   -0.0001053935    0.0002436809
 O    1.7967181434    4.3976860114    1.7127739623   -0.0000094497    0.0000480500    0.0002020270
 O    1.7942770518    4.3702011534    9.8429596170    0.0000230515    0.0000949567   -0.0001706722
 O    1.7804511705    2.3354353597    0.0048827317   -0.0002255050    0.0001295550   -0.0000366317
 O   -0.0904686315    2.2794405742    5.7948741731   -0.0009978792   -0.0000096606   -0.0000110642
 O    0.0136239794    0.1481363767    7.4537932517   -0.0000602449   -0.0001155964   -0.0001455794
 V   -0.0281189130    6.3915228505    7.4709814310   -0.0000658211    0.0000476104   -0.0000090652
 V    1.7865326976    7.3297133804    9.8445685367   -0.0001272357   -0.0001175550    0.0000444145
 V    1.7946742998    7.3443982294    1.7042066670    0.0001726543   -0.0004836737    0.0001364248
 V    0.0000579736    6.3953650340    4.0682022787   -0.0000814371   -0.0001894179    0.0000958308
 O    1.7878682062    6.7485468960    7.8706943373   -0.0000160558   -0.0007409943    0.0001355375
 O   -0.0108204484    6.8692564261    9.4558094935   -0.0001316162   -0.0000560410   -0.0000273263
 O   -0.0000765533    6.8829471466    2.0914106014    0.0000207072   -0.0001177852    0.0001568314
 O    1.8010141167    6.7963452732    3.6826760766    0.0000595926   -0.0010883422   -0.0000340533
 O   -0.0939530193    4.8040058944    4.1997609124   -0.0010720213   -0.0001270764    0.0004380701
 O    1.7960731936    8.9341826136    1.6426933614    0.0003341988   -0.0004423410    0.0004484020
 O    1.7836810706    8.9206542935    9.8926234176   -0.0003437792   -0.0001318343    0.0001629058
 O    1.7934829848    6.8317710446   -0.0128771560    0.0000377983   -0.0002056212    0.0000458499
 O    0.0258164018    6.9412816166    5.7758144959    0.0002121008   -0.0000009534    0.0000158578
 O   -0.1979806726    4.8011596325    7.3191508249   -0.0005962642    0.0001067015   -0.0001477704
 V    3.5464071951    1.6934881688    7.5389467279   -0.0001426573    0.0003431259   -0.0002703502
 V    5.3530865532    2.7594650371    9.8593874530   -0.0002714965    0.0001100091   -0.0000831009
 V    5.3584798755    2.7817142118    1.7284052259   -0.0001344562   -0.0000281222   -0.0000893342
 V    3.5602550797    1.7432243715    4.0576258534   -0.0000299940   -0.0000634432   -0.0000011061
 O    5.3399217352    2.2645377057    7.8543881799   -0.0001630595    0.0002105666    0.0001534302
 O    3.5614251935    2.2497131038    9.4761327765   -0.0002196048    0.0000669551   -0.0001225517
 O    3.5642462300    2.2887845557    2.1081209825   -0.0001542565   -0.0001144929   -0.0000889884
 O    5.3520602253    2.2615903709    3.7100022325   -0.0001096969   -0.0000510483   -0.0002863943
 O    3.5314174622    0.1552007678    4.0997451391   -0.0000808282   -0.0000151292    0.0001779147
 O    5.3546814961    4.3713509132    1.6789624160   -0.0002666366   -0.0000267858    0.0001046934
 O    5.3452810931    4.3490267981    9.8935631686   -0.0005957304    0.0000895446   -0.0001273621
 O    5.3573495328    2.2830038767    0.0082185976   -0.0000431257    0.0000143855   -0.0000916901
 O    3.6652831831    2.2539710760    5.8071789497    0.0004303955    0.0001654823   -0.0001674218
 O    3.5298866151    0.1045995252    7.4764739222   -0.0000818711    0.0003391625   -0.0003195751
 V    3.5951927346    6.4119024277    7.4723365654    0.0001580299    0.0001065855   -0.0002149768
 V    5.3627564301    7.3974301139    9.8484214752   -0.0001339375    0.0000785502    0.0000883349
 V    5.3636988312    7.3909197587    1.7086295501    0.0001077184    0.0001236220    0.0000395897
 V    3.6012969751    6.3946176029    4.0774961732    0.0004064164    0.0002294367    0.0002450265
 O    5.3577179254    6.9574838428    7.8385396219   -0.0000240201    0.0002987921    0.0000099987
 O    3.5871885740    6.8752371309    9.4530962215   -0.0000459628    0.0001708447   -0.0000803507
 O    3.5888016016    6.8688988071    2.0945726653    0.0002463515   -0.0001891516    0.0001894923
 O    5.3646000928    6.9221199321    3.7092646581    0.0002208349    0.0006839619    0.0002467742
 O    3.7225416608    4.8014821158    4.2731723875    0.0014710356    0.0004122207    0.0006450826
 O    5.3592328942    8.9815540222    1.6606965856   -0.0001277918    0.0001244442   -0.0002317008
 O    5.3659812889    8.9888012676    9.9045912241   -0.0000945045    0.0000662008    0.0002441038
 O    5.3607428575    6.8900332862   -0.0106979418    0.0000393066   -0.0000640644    0.0000850430
 O    3.5564718124    6.9611023307    5.7777084716   -0.0002012303    0.0006408516    0.0000178794
 O    3.7625653049    4.8129214024    7.2967060218    0.0007914593    0.0002630278   -0.0008767020
Li    5.0137277977    3.7828299064    6.0427025229    0.0027563122   -0.0010060993   -0.0005127427
 PRIMCOORD   3
   57  1
 V   -0.0071745650    1.7386587987    7.5097830533   -0.0002222099   -0.0001917839    0.0002510428
 V    1.7792566729    2.7804339875    9.8456751622    0.0000429317    0.0003106250   -0.0001055882
 V    1.7829778114    2.7949511572    1.7310435171    0.0001272524    0.0001944272    0.0000511112
 V   -0.0002175626    1.7532864663    4.0666622614   -0.0002875406   -0.0001465137   -0.0002156454
 O    1.7847427196    2.2329974001    7.8505937981    0.0000587012    0.0006883578   -0.0001784605
 O   -0.0051941575    2.2926143498    9.4650240982   -0.0002208521   -0.0003374546    0.0001470322
 O   -0.0015933919    2.3056529910    2.1123109003   -0.0001239447   -0.0002667012   -0.0000836856
 O    1.7883177140    2.2582592015    3.7296094775    0.0000609677    0.0000127768    0.0001201914
 O    0.0124053171    0.1636015194    4.1050672596   -0.0001063002   -0.0001670939    0.0002554736
 O    1.7990715883    4.3860261154    1.7136192998    0.0000610854    0.0002938036    0.0004050737
 O    1.7964543981    4.3716017767    9.8476859388    0.0002181537    0.0003530384   -0.0001298564
 O    1.7736695070    2.3276850942    0.0036297931   -0.0000583671    0.0000953143   -0.0000289609
 O   -0.0513765657    2.2643175106    5.7910133949   -0.0011780050   -0.0006321203    0.0000973265
 O   -0.0001707775    0.1492089576    7.4575167721    0.0003571588   -0.0002227520    0.0000825661
 V   -0.0200514113    6.4001022902    7.4838219588    0.0002029197    0.0000660805    0.0001331160
 V    1.7821176873    7.3487193974    9.8532665324    0.0000411319   -0.0001383998    0.0001307747
 V    1.7930758745    7.3497850393    1.7092192047    0.0000707620   -0.0004228694    0.0001335555
 V    0.0031294551    6.3922049020    4.0747607180   -0.0003685233   -0.0000664414    0.0000875556
 O    1.7876750851    6.8041552648    7.8717316557    0.0001724817   -0.0008203995    0.0002926376
 O   -0.0084613395    6.8740723309    9.4702639865   -0.0000249941    0.0002733488    0.0000063115
 O    0.0021234476    6.8842703790    2.0976828597   -0.0000872248   -0.0003451472   -0.0000740201
 O    1.8029747253    6.8071986673    3.6938272465   -0.0002608884   -0.0005399914   -0.0001376886
 O   -0.0755367959    4.7999031612    4.1955319801   -0.0014217567   -0.0000208645    0.0003647298
 O    1.7950912001    8.9398126506    1.6478126236    0.0002288307   -0.0004142816    0.0005174672
 O    1.7769051116    8.9390122160    9.9094511456   -0.0002029770   -0.0001526834    0.0003575355
 O    1.7948941811    6.8397895157   -0.0055650067    0.0001283066   -0.0003131476    0.0000766740
 O    0.0147648937    6.9355841051    5.7785553333    0.0002530229   -0.0002444648    0.0001047739
 O   -0.1316012730    4.8093674294    7.3581812745    0.0000199038    0.0000714373    0.0004107515
 V    3.5501076944    1.6862256745    7.5429165449   -0.0002055365   -0.0000974818   -0.0005071360
 V    5.3506908089    2.7682866705    9.8543335679   -0.0003055453    0.0001521025   -0.0000972568
 V    5.3546529809    2.7845751390    1.7277522999   -0.0002753881   -0.0000010139   -0.0000830633
 V    3.5544667087    1.7089999895    4.0411643997   -0.0001635068   -0.0005724476    0.0002829825
 O    5.3370384609    2.2439042164    7.8627323258   -0.0005183608    0.0003527788   -0.0004391852
 O    3.5605448177    2.2535390499    9.4779946200   -0.0000552004   -0.0001908343   -0.0001651211
 O    3.5640973024    2.2769471809    2.1044991730   -0.0000604268   -0.0005038485   -0.0001626680
 O    5.3423801991    2.2620294484    3.7185422060   -0.0005038951    0.0000951749    0.0002831502
 O    3.5397571735    0.1204977578    4.0793132713    0.0000051083   -0.0006999997    0.0002425864
 O    5.3444547327    4.3748526132    1.6896385311   -0.0003405904    0.0000260955    0.0001862595
 O    5.3362487346    4.3581666077    9.8821687871   -0.0004657676    0.0001635499   -0.0001777652
 O    5.3547647154    2.2963946949    0.0068490686    0.0001531061   -0.0000446265   -0.0001194262
 O    3.6359494131    2.2219598893    5.7957671836    0.0000965940    0.0011323164   -0.0002622544
 O    3.5359091531    0.0969539578    7.4928554862   -0.0000705384   -0.0002079156   -0.0004243317
 V    3.5861266363    6.4293265270    7.4878475391    0.0003165017    0.0002355711   -0.0004927944
 V    5.3623741261    7.3941883420    9.8562005298   -0.0001470636    0.0000111722    0.0001609111
 V    5.3635587705    7.3830526163    1.7125345843    0.0001823694    0.0002902812   -0.0000110884
 V    3.5977128735    6.4096927175    4.0859388006    0.0000445038    0.0006940194   -0.0001261118
 O    5.3549000740    6.9434109208    7.8515122265    0.0001368694    0.0001355869    0.0000201132
 O    3.5805653444    6.8828482560    9.4630333282    0.0000957364    0.0003616852   -0.0001603484
 O    3.5854159704    6.8672389823    2.1041708126    0.0002227813    0.0002940741    0.0001510197
 O    5.3625294035    6.9093724011    3.7114306134    0.0002199905    0.0011090695    0.0002658273
 O    3.7066906070    4.8062369177    4.2912917914    0.0006497758    0.0008648169   -0.0001440519
 O    5.3567401606    8.9734081378    1.6614275419    0.0000480326    0.0002711417   -0.0004578573
 O    5.3684487797    8.9847642290    9.9179836765   -0.0002752112   -0.0000268749    0.0003717739
 O    5.3563013203    6.8797417963   -0.0042650737    0.0000239105   -0.0001832754    0.0001470806
 O    3.5655025333    6.9705453409    5.7821797368   -0.0001384099    0.0007453972   -0.0001122113
 O    3.7060807134    4.8246212388    7.3081436856    0.0006996392    0.0004114772   -0.0014001760
Li    4.6583392442    3.9090853870    5.8098928130    0.0031504960   -0.0017340919    0.0001593483
 PRIMCOORD   4
   57  1
 V   -0.0054768488    1.7383026728    7.5071875791   -0.0003876595   -0.0000127677    0.0002573754
 V    1.7813743993    2.7814536744    9.8454656696    0.0000430126    0.0001245456   -0.0002051734
 V    1.7820281565    2.7845189344    1.7275589818    0.0001833296    0.0001888316    0.0001178864
 V   -0.0041645976    1.7462560505    4.0685603381   -0.0004099996   -0.0001809094   -0.0004216405
 O    1.7906244814    2.2240426351    7.8587695706    0.0002535537   -0.0001451461   -0.0001315581
 O   -0.0049111450    2.3034762012    9.4611037111   -0.0003777980   -0.0006772362   -0.0000002692
 O   -0.0049123585    2.3089849506    2.1143972396   -0.0002823817   -0.0005305251    0.0000402568
 O    1.7921086661    2.2280635251    3.7161855587    0.0000676309   -0.0003647195    0.0000869730
 O   -0.0052053919    0.1564465508    4.1078088217   -0.0001814661   -0.0001830736    0.0002680191
 O    1.8006261226    4.3749723970    1.7087542617    0.0003430390    0.0002914835    0.0005767444
 O    1.8006132553    4.3721247637    9.8567113445    0.0003347812    0.0002233218   -0.0001655085
 O    1.7729392723    2.3192036034    0.0007522197   -0.0002466961   -0.0000627264   -0.0000688030
 O   -0.0225451104    2.2561771476    5.7892754284   -0.0009331743   -0.0010066812    0.0000150106
 O   -0.0031923066    0.1482245113    7.4599268513    0.0000502666    0.0000209654    0.0001087166
 V   -0.0115210033    6.4056493248    7.4937169791   -0.0000097831   -0.0000840709   -0.0000051636
 V    1.7790556172    7.3687973947    9.8595923961   -0.0000330075    0.0001174280    0.0001821963
 V    1.7830452137    7.3718342782    1.7071078151   -0.0001317106    0.0001754471    0.0001065425
 V   -0.0008629992    6.3980218682    4.0758284875   -0.0001748360    0.0005742478   -0.0001821428
 O    1.7869477891    6.8568044062    7.8724309292   -0.0001599086   -0.0003376085    0.0000656335
 O   -0.0048312393    6.8778829084    9.4815620961   -0.0000461648    0.0006373676   -0.0000870392
 O    0.0011510260    6.8799681080    2.0904989156   -0.0002322232    0.0001545195   -0.0000916438
 O    1.7889541998    6.8769135180    3.7002789175    0.0000127558   -0.0011225722   -0.0001899698
 O   -0.0286992955    4.8051129091    4.1797254026   -0.0011563444    0.0006252323   -0.0004412221
 O    1.7813975399    8.9614974990    1.6405591541   -0.0006597562    0.0001618448   -0.0003241483
 O    1.7700780551    8.9587029836    9.9224457050   -0.0002015086    0.0000672423    0.0004960779
 O    1.7955494900    6.8496841269   -0.0027923164    0.0000382236    0.0000850509    0.0001472609
 O    0.0033843747    6.9274122767    5.7833674694   -0.0001877980   -0.0002095362    0.0000843179
 O   -0.0692086053    4.8140881600    7.3906108731   -0.0000398569   -0.0001727784    0.0005121757
 V    3.5561003928    1.6677974510    7.5497090883   -0.0003264389   -0.0004667559   -0.0006960838
 V    5.3531018676    2.7753176254    9.8509763413   -0.0004986029    0.0001708495   -0.0002075473
 V    5.3542441566    2.7852109015    1.7280736929   -0.0005136438   -0.0000574406   -0.0000829682
 V    3.5574730372    1.6726848316    4.0250788487   -0.0003020012   -0.0003865549    0.0008029168
 O    5.3363987680    2.2352006947    7.8599179851   -0.0008510464   -0.0000079160   -0.0006449037
 O    3.5649680988    2.2563014753    9.4784512455   -0.0000509693   -0.0010196442   -0.0004106317
 O    3.5666051685    2.2635167804    2.0979322445   -0.0000601194   -0.0008468017    0.0001885385
 O    5.3367571116    2.2479269229    3.7181576543   -0.0006987169    0.0001097562    0.0007068566
 O    3.5562339194    0.0828748438    4.0624241970    0.0000298650   -0.0005224291    0.0001877113
 O    5.3385115783    4.3757423725    1.7002589708   -0.0005276684    0.0000029983    0.0002228357
 O    5.3348990971    4.3652466024    9.8739496511   -0.0004323343    0.0002746102   -0.0001734079
 O    5.3580430338    2.3073027399    0.0045975232    0.0002973031   -0.0000682913   -0.0002137451
 O    3.6011726274    2.1815325187    5.7886112730    0.0001484240    0.0019381368   -0.0001854712
 O    3.5495144601    0.0778952818    7.5084149906   -0.0000374531   -0.0005535779   -0.0001519785
 V    3.5763507260    6.4455581898    7.5027183849   -0.0000372392    0.0003220747   -0.0000813525
 V    5.3639674132    7.3911142018    9.8628035897   -0.0000407873    0.0000616604    0.0000426182
 V    5.3656463275    7.3801101806    1.7123634101   -0.0002703167    0.0005008755   -0.0001350193
 V    3.5724510833    6.4407010739    4.0658205880    0.0002104231    0.0001175565    0.0006274905
 O    5.3542144982    6.9247456291    7.8648171254    0.0000978567   -0.0000474352   -0.0001867046
 O    3.5753219984    6.8972783862    9.4703491677   -0.0000071863    0.0008334222   -0.0002855266
 O    3.5746810969    6.8909212934    2.1011940046   -0.0000922221    0.0003495536    0.0001346460
 O    5.3572652681    6.8962814343    3.7061776154   -0.0001313811    0.0002172194   -0.0002122974
 O    3.6051362368    4.8249187091    4.2033741402    0.0012462437    0.0003253909    0.0022651157
 O    5.3659979602    8.9701045225    1.6569302710    0.0005539205    0.0004846342   -0.0009190430
 O    5.3740486278    8.9812268073    9.9308771836   -0.0001743707   -0.0000116123    0.0001888306
 O    5.3506727677    6.8678096216   -0.0006837269   -0.0002518782    0.0000654014    0.0000713096
 O    3.5762232003    6.9474390213    5.7841194712   -0.0001687598    0.0009333224    0.0000886966
 O    3.6338137150    4.8302937837    7.3663211322    0.0001347716    0.0005007608   -0.0012835706
Li    4.2548536364    3.9732932822    5.7852644280    0.0072798087   -0.0015769412   -0.0004082198
 PRIMCOORD   5
   57  1
 V   -0.0012864300    1.7400875315    7.5047196593   -0.0001251898   -0.0001306599    0.0002197266
 V    1.7852336759    2.7820325132    9.8451188483    0.0001871563   -0.0000628855   -0.0001213725
 V    1.7853592827    2.7796215413    1.7248311849    0.0002164541    0.0000327609    0.0002111818
 V   -0.0009446806    1.7420213495    4.0687039013   -0.0001983090   -0.0002046405   -0.0003036232
 O    1.7996732123    2.2215550222    7.8614760286    0.0003106471   -0.0005756114   -0.0003413180
 O   -0.0009616753    2.3089340741    9.4577005248   -0.0001670643   -0.0006122042   -0.0000997967
 O   -0.0015461435    2.3102493517    2.1155404154   -0.0001096688   -0.0005704959    0.0001179861
 O    1.8002804166    2.2176763466    3.7104281497    0.0002109592   -0.0007655804    0.0002746064
 O   -0.0050683046    0.1520443800    4.1113237675   -0.0001046815   -0.0001226931    0.0001984220
 O    1.8042132482    4.3696703900    1.7038020185    0.0005141810    0.0001348087    0.0004567852
 O    1.8045640943    4.3724796376    9.8634307116    0.0004337135    0.0000209015   -0.0001954887
 O    1.7766653044    2.3139224534   -0.0017241519   -0.0003682500   -0.0001360420    0.0000395113
 O   -0.0051082715    2.2544970017    5.7869902463   -0.0003227474   -0.0011359163    0.0000000876
 O    0.0009725228    0.1500110146    7.4601519295   -0.0000699776   -0.0000303284   -0.0000956306
 V   -0.0056082785    6.4075443402    7.4972767556    0.0000215640    0.0000846082   -0.0000207500
 V    1.7776345326    7.3801142442    9.8623029444   -0.0001626285    0.0004344316    0.0002267249
 V    1.7780739254    7.3876689491    1.7054456220   -0.0001366792    0.0001763846    0.0000446838
 V    0.0028555417    6.4056988330    4.0749511385   -0.0001414779    0.0003158700   -0.0000978905
 O    1.7868310087    6.8856182022    7.8724084945   -0.0002540442    0.0000710170    0.0002044871
 O   -0.0017476948    6.8788167339    9.4869387691   -0.0000051192    0.0007918016    0.0000350659
 O    0.0025260099    6.8784376472    2.0852625767   -0.0001182823    0.0008184720    0.0000383021
 O    1.7866512122    6.9129495214    3.7023580047   -0.0001927153   -0.0009224235   -0.0004483563
 O    0.0086746734    4.8138333197    4.1685275606   -0.0007788679    0.0003040729   -0.0007527425
 O    1.7694461293    8.9772502799    1.6332040521   -0.0006403281    0.0000955030   -0.0003017104
 O    1.7669387702    8.9697698876    9.9262653704   -0.0004575297    0.0003503882    0.0007638009
 O    1.7968155522    6.8574018040   -0.0015230126    0.0001192690    0.0003237404    0.0000851557
 O    0.0003681220    6.9242870067    5.7856773936   -0.0001700187    0.0000030218    0.0000413311
 O   -0.0313595350    4.8160526526    7.4039749659    0.0003037423    0.0000039942    0.0007302482
 V    3.5666743251    1.6516828146    7.5554045235   -0.0001799474   -0.0003008901   -0.0006439801
 V    5.3573021303    2.7782461938    9.8488870007   -0.0004024576    0.0000652408   -0.0002057647
 V    5.3575975693    2.7836004372    1.7275827093   -0.0004214010   -0.0001064241    0.0000590154
 V    3.5678786967    1.6522520664    4.0173569040   -0.0001730638   -0.0002992409    0.0006373288
 O    5.3393993064    2.2240087654    7.8607210046   -0.0005709458   -0.0006090780   -0.0004126191
 O    3.5704320060    2.2556775665    9.4790463073   -0.0000419356   -0.0013423436   -0.0005277333
 O    3.5715615647    2.2570111111    2.0942162402   -0.0000555284   -0.0012352496    0.0004702753
 O    5.3394909153    2.2309201965    3.7139478994   -0.0005210713   -0.0002800845    0.0005526532
 O    3.5718227436    0.0616235632    4.0530517079   -0.0000439012   -0.0003345930    0.0004049144
 O    5.3392260209    4.3741306673    1.7058272700   -0.0005692441   -0.0000512380    0.0002078828
 O    5.3385616421    4.3681871121    9.8708662033   -0.0005362349    0.0001783243   -0.0003152712
 O    5.3647297456    2.3118637868    0.0025420831    0.0003256577   -0.0001237831   -0.0001325978
 O    3.5800208642    2.1564225258    5.7866922456    0.0000308102    0.0012230756   -0.0001239824
 O    3.5633840308    0.0609109155    7.5190058319   -0.0000043346   -0.0002785987   -0.0003985356
 V    3.5746196321    6.4559281819    7.5180981351   -0.0001651214    0.0003932539    0.0001064268
 V    5.3677875427    7.3909206310    9.8661015819    0.0000525523    0.0001913770    0.0000468580
 V    5.3679655768    7.3816450868    1.7105418291   -0.0000329300    0.0004587214   -0.0001551523
 V    3.5669626718    6.4539682130    4.0531095267    0.0000915926    0.0007966119    0.0002233284
 O    5.3569744369    6.9184945307    7.8700123585    0.0001042311   -0.0002669186    0.0001994558
 O    3.5746429189    6.9098728663    9.4748916563   -0.0001155329    0.0010637159   -0.0001577953
 O    3.5707455759    6.9084278071    2.0974034627    0.0000324726    0.0007908476    0.0001301526
 O    5.3568023594    6.8908289809    3.7008893944    0.0001833513   -0.0000273645   -0.0003456998
 O    3.5601883662    4.8335105809    4.1446147216    0.0003445098    0.0008355342   -0.0008230878
 O    5.3769933839    8.9714150975    1.6497017733    0.0005043173    0.0003827712   -0.0009132513
 O    5.3792037873    8.9806230494    9.9380974270    0.0002859298    0.0001070583    0.0002034251
 O    5.3489574446    6.8615633060    0.0003442879   -0.0002852043    0.0002736966    0.0000353073
 O    3.5768146428    6.9179754440    5.7850674121   -0.0000044518    0.0011706482    0.0003830527
 O    3.5957376040    4.8356032079    7.4310360103   -0.0003858450    0.0004234155   -0.0006641834
Li    3.8090082660    4.0152408800    5.7814497677    0.0047596191   -0.0017907815    0.0012501504
 PRIMCOORD   6
   57  1
 V    0.0048173347    1.7424155706    7.5038576039    0.0001941680   -0.0001787566    0.0003046597
 V    1.7901090017    2.7840332782    9.8449864538    0.0004193634   -0.0001033068   -0.0000595624
 V    1.7904154486    2.7788316834    1.7236945655    0.0003985873    0.0000647342    0.0001993777
 V    0.0051632796    1.7406063470    4.0678479136    0.0001230934   -0.0001079421   -0.0002206207
 O    1.8082108166    2.2313779562    7.8586172488    0.0005201658   -0.0002938121   -0.0005601541
 O    0.0054243966    2.3106538626    9.4570413406    0.0001079233   -0.0005792843   -0.0001265218
 O    0.0048432787    2.3095613899    2.1148851278    0.0001666508   -0.0006244331    0.0001061269
 O    1.8083178028    2.2246015484    3.7118517304    0.0005692656   -0.0006226556    0.0004190430
 O    0.0028959794    0.1505180404    4.1123615032    0.0000687499   -0.0000087689    0.0000951428
 O    1.8091522817    4.3687620874    1.7016751415    0.0005366117    0.0001987606    0.0003150667
 O    1.8084493545    4.3745536214    9.8666671792    0.0005700459   -0.0000292563   -0.0002062049
 O    1.7829992181    2.3124119917   -0.0030125564   -0.0003278961   -0.0001295981    0.0001325781
 O    0.0089652736    2.2550011814    5.7855872805    0.0003224915   -0.0011511061   -0.0000009550
 O    0.0089313779    0.1524288263    7.4611773740    0.0001047237   -0.0000976006   -0.0001963863