
     Program PWSCF v.6.4.1 starts on  7Oct2024 at 12:36:21 

     This program is part of the open-source Quantum ESPRESSO suite
     for quantum simulation of materials; please cite
         "P. Giannozzi et al., J. Phys.:Condens. Matter 21 395502 (2009);
         "P. Giannozzi et al., J. Phys.:Condens. Matter 29 465901 (2017);
          URL http://www.quantum-espresso.org", 
     in publications or presentations arising from this work. More details at
     http://www.quantum-espresso.org/quote

     Parallel version (MPI), running on    32 processors

     MPI processes distributed on     1 nodes
     R & G space division:  proc/nbgrp/npool/nimage =      32
     Reading input from CNT_ox.in
Warning: card &IONS ignored
Warning: card     ION_DYNAMICS = "BFGS" ignored
Warning: card     BFGS_NDIM = 2 ignored
Warning: card / ignored

     Current dimensions of program PWSCF are:
     Max number of different atomic species (ntypx) = 10
     Max number of k-points (npk) =  40000
     Max angular momentum in pseudopotentials (lmaxx) =  3

     IMPORTANT: XC functional enforced from input :
     Exchange-correlation      = VDW-DF ( 1  4  4  0 1 0)
     Any further DFT definition will be discarded
     Please, verify this is what you really want

               file O.pbesol-n-kjpaw_psl.1.0.0.UPF: wavefunction(s)  2S 2P renormalized
               file C.pbesol-n-kjpaw_psl.1.0.0.UPF: wavefunction(s)  2S 2P renormalized

     Subspace diagonalization in iterative solution of the eigenvalue problem:
     one sub-group per band group will be used
     ELPA distributed-memory algorithm (size of sub-group:  4*  4 procs)


     Parallelization info
     --------------------
     sticks:   dense  smooth     PW     G-vecs:    dense   smooth      PW
     Min         426     170     47               119505    30230    4446
     Max         427     171     48               119514    30241    4456
     Sum       13635    5445   1525              3824339   967507  142413



     bravais-lattice index     =            0
     lattice parameter (alat)  =      30.2219  a.u.
     unit-cell volume          =   28307.6739 (a.u.)^3
     number of atoms/cell      =           93
     number of atomic types    =            2
     number of electrons       =       374.00
     number of Kohn-Sham states=          224
     kinetic-energy cutoff     =      40.0000  Ry
     charge density cutoff     =     400.0000  Ry
     convergence threshold     =      1.0E-06
     mixing beta               =       0.4000
     number of iterations used =            8  local-TF  mixing
     Exchange-correlation      = VDW-DF ( 1  4  4  0 1 0)

     celldm(1)=  30.221920  celldm(2)=   0.000000  celldm(3)=   0.000000
     celldm(4)=   0.000000  celldm(5)=   0.000000  celldm(6)=   0.000000

     crystal axes: (cart. coord. in units of alat)
               a(1) = (   1.000000   0.000000   0.000000 )  
               a(2) = (  -0.522247   0.468590   0.000000 )  
               a(3) = (   0.000000   0.000000   2.188492 )  

     reciprocal axes: (cart. coord. in units 2 pi/alat)
               b(1) = (  1.000000  1.114507 -0.000000 )  
               b(2) = (  0.000000  2.134061  0.000000 )  
               b(3) = (  0.000000 -0.000000  0.456936 )  


     PseudoPot. # 1 for O  read from file:
     /home/mpicuntureo/pseudos/O.pbesol-n-kjpaw_psl.1.0.0.UPF
     MD5 check sum: cb766521a97cf798d01896eaf7ac9a0a
     Pseudo is Projector augmented-wave + core cor, Zval =  6.0
     Generated using "atomic" code by A. Dal Corso v.6.3
     Shape of augmentation charge: PSQ
     Using radial grid of 1095 points,  4 beta functions with: 
                l(1) =   0
                l(2) =   0
                l(3) =   1
                l(4) =   1
     Q(r) pseudized with 0 coefficients 


     PseudoPot. # 2 for C  read from file:
     /home/mpicuntureo/pseudos/C.pbesol-n-kjpaw_psl.1.0.0.UPF
     MD5 check sum: f9b2fe17d1f478429498b05d17159f9e
     Pseudo is Projector augmented-wave + core cor, Zval =  4.0
     Generated using "atomic" code by A. Dal Corso v.6.3
     Shape of augmentation charge: PSQ
     Using radial grid of 1073 points,  4 beta functions with: 
                l(1) =   0
                l(2) =   0
                l(3) =   1
                l(4) =   1
     Q(r) pseudized with 0 coefficients 


     vdW kernel table read from file vdW_kernel_table
     MD5 check sum: 8c4337f4b28e1601c069d7ef7b6561bc

     atomic species   valence    mass     pseudopotential
        O              6.00    15.99940     O ( 1.00)
        C              4.00    12.01100     C ( 1.00)

     No symmetry found



   Cartesian axes

     site n.     atom                  positions (alat units)
         1           O   tau(   1) = (   0.0935126   0.2650500   0.3360670  )
         2           C   tau(   2) = (  -0.1148219   0.3933141   0.2256462  )
         3           C   tau(   3) = (   0.1634536   0.0265568   0.2262223  )
         4           C   tau(   4) = (   0.0705116   0.1468269   0.2369766  )
         5           C   tau(   5) = (   0.0122650   0.0057178   0.2271502  )
         6           C   tau(   6) = (  -0.0239090   0.2714989   0.2353110  )
         7           C   tau(   7) = (  -0.0808091   0.1282706   0.2306519  )
         8           C   tau(   8) = (   0.3387194   0.4542445   0.2284216  )
         9           C   tau(   9) = (  -0.1735671   0.2509036   0.2248131  )
        10           C   tau(  10) = (   0.7682424   0.1083419   0.2254109  )
        11           C   tau(  11) = (   0.1875106   0.4345817   0.2307183  )
        12           C   tau(  12) = (  -0.2660713   0.3730469   0.2226434  )
        13           C   tau(  13) = (   0.6754309   0.2303593   0.2219986  )
        14           C   tau(  14) = (   0.6170594   0.0877604   0.2242011  )
        15           C   tau(  15) = (   0.0367228   0.4139531   0.2314633  )
        16           C   tau(  16) = (   0.5828151   0.3524134   0.2227892  )
        17           C   tau(  17) = (   0.5242760   0.2097868   0.2218050  )
        18           C   tau(  18) = (   0.4658719   0.0672959   0.2238313  )
        19           C   tau(  19) = (   0.4316684   0.3319637   0.2240941  )
        20           C   tau(  20) = (   0.3730821   0.1894489   0.2243885  )
        21           C   tau(  21) = (   0.3146906   0.0469498   0.2239784  )
        22           C   tau(  22) = (   0.2806703   0.3115655   0.2310022  )
        23           C   tau(  23) = (   0.2221259   0.1695335   0.2321130  )
        24           C   tau(  24) = (   0.1305132   0.2927832   0.2530460  )
        25           C   tau(  25) = (  -0.2773754   0.4611082   0.2238808  )
        26           C   tau(  26) = (   0.1516970   0.1145006   0.2322970  )
        27           C   tau(  27) = (  -0.4285437   0.4405845   0.2251677  )
        28           C   tau(  28) = (   0.0577364   0.2359242   0.2528899  )
        29           C   tau(  29) = (   0.0009460   0.0938459   0.2316040  )
        30           C   tau(  30) = (   0.4202648   0.4200521   0.2263540  )
        31           C   tau(  31) = (  -0.0921810   0.2168737   0.2296496  )
        32           C   tau(  32) = (   0.8497831   0.0741791   0.2280789  )
        33           C   tau(  33) = (   0.2692862   0.4001967   0.2309532  )
        34           C   tau(  34) = (  -0.1846342   0.3389440   0.2238861  )
        35           C   tau(  35) = (   0.7568165   0.1963869   0.2234719  )
        36           C   tau(  36) = (   0.6985144   0.0540809   0.2260088  )
        37           C   tau(  37) = (  -0.3358037   0.3184932   0.2222131  )
        38           C   tau(  38) = (   0.6056697   0.1758747   0.2220536  )
        39           C   tau(  39) = (   0.5472959   0.0332639   0.2257065  )
        40           C   tau(  40) = (   0.5130422   0.2979461   0.2222402  )
        41           C   tau(  41) = (   0.4545188   0.1552990   0.2227107  )
        42           C   tau(  42) = (   0.3960275   0.0128935   0.2240393  )
        43           C   tau(  43) = (   0.3620267   0.2775147   0.2257951  )
        44           C   tau(  44) = (   0.3032188   0.1351247   0.2259380  )
        45           C   tau(  45) = (   0.2123422   0.2569901   0.2366960  )
        46           C   tau(  46) = (   0.1179061   0.3816543   0.2359673  )
        47           C   tau(  47) = (  -0.0337080   0.3589573   0.2312704  )
        48           C   tau(  48) = (   0.2392793   0.0735151   0.0036225  )
        49           C   tau(  49) = (  -0.0046853   0.1753722   0.0033987  )
        50           C   tau(  50) = (  -0.0974521   0.2976166   0.0050610  )
        51           C   tau(  51) = (  -0.1558987   0.1549970   0.0044484  )
        52           C   tau(  52) = (  -0.1902157   0.4198619   0.0052081  )
        53           C   tau(  53) = (  -0.2486605   0.2772454   0.0054535  )
        54           C   tau(  54) = (   0.6928925   0.1346327   0.0053067  )
        55           C   tau(  55) = (  -0.3414218   0.3994928   0.0043428  )
        56           C   tau(  56) = (   0.6001313   0.2568742   0.0050199  )
        57           C   tau(  57) = (   0.5416822   0.1142608   0.0053905  )
        58           C   tau(  58) = (   0.0880737   0.0531410   0.0029181  )
        59           C   tau(  59) = (   0.5073788   0.3791151   0.0033519  )
        60           C   tau(  60) = (   0.4489277   0.2364951   0.0040049  )
        61           C   tau(  61) = (   0.3904760   0.0938923   0.0046640  )
        62           C   tau(  62) = (   0.9368664   0.0327632   0.0029695  )
        63           C   tau(  63) = (   0.3561736   0.3587417   0.0028596  )
        64           C   tau(  64) = (   0.2977273   0.2161214   0.0030791  )
        65           C   tau(  65) = (   0.7856602   0.0123849   0.0037320  )
        66           C   tau(  66) = (   0.2049692   0.3383661   0.0031253  )
        67           C   tau(  67) = (   0.1465177   0.1957511   0.0028386  )
        68           C   tau(  68) = (   0.1122044   0.4606027   0.0047714  )
        69           C   tau(  69) = (   0.0537541   0.3179868   0.0040646  )
        70           C   tau(  70) = (  -0.0390008   0.4402315   0.0053986  )
        71           C   tau(  71) = (   0.0767125   0.1412918   0.0029025  )
        72           C   tau(  72) = (  -0.0160446   0.2635267   0.0042056  )
        73           C   tau(  73) = (  -0.0744916   0.1209104   0.0035548  )
        74           C   tau(  74) = (  -0.1088163   0.3857677   0.0054510  )
        75           C   tau(  75) = (  -0.1672624   0.2431502   0.0051703  )
        76           C   tau(  76) = (   0.7742987   0.1005341   0.0046076  )
        77           C   tau(  77) = (  -0.2600186   0.3654016   0.0051679  )
        78           C   tau(  78) = (   0.6815276   0.2227829   0.0054823  )
        79           C   tau(  79) = (   0.6230866   0.0801569   0.0053855  )
        80           C   tau(  80) = (   0.1694752   0.0190522   0.0035694  )
        81           C   tau(  81) = (   0.5887732   0.3450252   0.0042687  )
        82           C   tau(  82) = (   0.5303207   0.2024204   0.0049373  )
        83           C   tau(  83) = (  -0.5039731   0.4672744   0.0029347  )
        84           C   tau(  84) = (   0.4375794   0.3246495   0.0032919  )
        85           C   tau(  85) = (   0.3791238   0.1820402   0.0038870  )
        86           C   tau(  86) = (   0.3448174   0.4468978   0.0030656  )
        87           C   tau(  87) = (   0.2863724   0.3042763   0.0028493  )
        88           C   tau(  88) = (   0.2279286   0.1616659   0.0030407  )
        89           C   tau(  89) = (   0.1936091   0.4265169   0.0038764  )
        90           C   tau(  90) = (   0.1351635   0.2838973   0.0032325  )
        91           C   tau(  91) = (   0.0423951   0.4061403   0.0048951  )
        92           C   tau(  92) = (   0.4718806   0.0598007   0.0053706  )
        93           C   tau(  93) = (   0.3206685   0.0394311   0.0045875  )

     number of k points=     4  gaussian smearing, width (Ry)=  0.1000
                       cart. coord. in units 2pi/alat
        k(    1) = (   0.0000000   0.0000000   0.0000000), wk =   0.5000000
        k(    2) = (   0.0000000  -1.0670305   0.0000000), wk =   0.5000000
        k(    3) = (  -0.5000000  -0.5572533   0.0000000), wk =   0.5000000
        k(    4) = (  -0.5000000  -1.6242837   0.0000000), wk =   0.5000000

     Dense  grid:  3824339 G-vectors     FFT dimensions: ( 200, 135, 432)

     Smooth grid:   967507 G-vectors     FFT dimensions: ( 125,  90, 270)

     Estimated max dynamical RAM per process >     436.69 MB

     Estimated total dynamical RAM >      13.65 GB

     Check: negative core charge=   -0.000002

     Initial potential from superposition of free atoms

     starting charge  373.99617, renormalised to  374.00000

     negative rho (up, down):  4.630E-03 0.000E+00


     %%%%%%%%%%%%%%%%%%%%%%%%%%%%%%%%%%%%%%%%%%%%%%%%%%%%%%%%%%%%%%%%%%%%%%%%
     %                                                                      %
     % You are using vdW-DF, which was implemented by the Thonhauser group. %
     % Please cite the following two papers that made this development      %
     % possible and the two reviews that describe the various versions:     %
     %                                                                      %
     %   T. Thonhauser et al., PRL 115, 136402 (2015).                      %
     %   T. Thonhauser et al., PRB 76, 125112 (2007).                       %
     %   K. Berland et al., Rep. Prog. Phys. 78, 066501 (2015).             %
     %   D.C. Langreth et al., J. Phys.: Condens. Matter 21, 084203 (2009). %
     %                                                                      %
     %                                                                      %
     % If you are calculating the stress with vdW-DF, please also cite:     %
     %                                                                      %
     %   R. Sabatini et al., J. Phys.: Condens. Matter 24, 424209 (2012).   %
     %                                                                      %
     %%%%%%%%%%%%%%%%%%%%%%%%%%%%%%%%%%%%%%%%%%%%%%%%%%%%%%%%%%%%%%%%%%%%%%%%


     Starting wfcs are  372 randomized atomic wfcs
     Checking if some PAW data can be deallocated... 

     total cpu time spent up to now is      148.1 secs

     Self-consistent Calculation

     iteration #  1     ecut=    40.00 Ry     beta= 0.40
     Davidson diagonalization with overlap
     ethr =  1.00E-02,  avg # of iterations =  2.0

     negative rho (up, down):  1.127E-03 0.000E+00

     total cpu time spent up to now is      508.4 secs

     total energy              =   -1775.48539984 Ry
     Harris-Foulkes estimate   =   -1777.68156548 Ry
     estimated scf accuracy    <      10.55934791 Ry

     iteration #  2     ecut=    40.00 Ry     beta= 0.40
     Davidson diagonalization with overlap
     ethr =  2.82E-03,  avg # of iterations =  1.0

     negative rho (up, down):  6.203E-03 0.000E+00

     total cpu time spent up to now is      731.5 secs

     total energy              =   -1772.49167268 Ry
     Harris-Foulkes estimate   =   -1775.65267901 Ry
     estimated scf accuracy    <       5.73341943 Ry

     iteration #  3     ecut=    40.00 Ry     beta= 0.40
     Davidson diagonalization with overlap
     ethr =  1.53E-03,  avg # of iterations = 10.5

     negative rho (up, down):  7.425E-04 0.000E+00

     total cpu time spent up to now is     1089.4 secs

     total energy              =   -1773.33228901 Ry
     Harris-Foulkes estimate   =   -1773.38006266 Ry
     estimated scf accuracy    <       0.34941645 Ry

     iteration #  4     ecut=    40.00 Ry     beta= 0.40
     Davidson diagonalization with overlap
     ethr =  9.34E-05,  avg # of iterations = 16.0

     negative rho (up, down):  1.351E-04 0.000E+00

     total cpu time spent up to now is     1379.7 secs

     total energy              =   -1773.30208036 Ry
     Harris-Foulkes estimate   =   -1773.36294215 Ry
     estimated scf accuracy    <       0.22581692 Ry

     iteration #  5     ecut=    40.00 Ry     beta= 0.40
     Davidson diagonalization with overlap
     ethr =  6.04E-05,  avg # of iterations =  1.5

     negative rho (up, down):  3.917E-06 0.000E+00

     total cpu time spent up to now is     1600.0 secs

     total energy              =   -1773.27038194 Ry
     Harris-Foulkes estimate   =   -1773.31005611 Ry
     estimated scf accuracy    <       0.12663548 Ry

     iteration #  6     ecut=    40.00 Ry     beta= 0.40
     Davidson diagonalization with overlap
     ethr =  3.39E-05,  avg # of iterations = 11.8

     negative rho (up, down):  1.572E-02 0.000E+00

     total cpu time spent up to now is     1855.0 secs

     total energy              =   -1773.25372075 Ry
     Harris-Foulkes estimate   =   -1773.27514916 Ry
     estimated scf accuracy    <       0.07666435 Ry

     iteration #  7     ecut=    40.00 Ry     beta= 0.40
     Davidson diagonalization with overlap
     ethr =  2.05E-05,  avg # of iterations = 12.5

     negative rho (up, down):  1.409E-01 0.000E+00

     total cpu time spent up to now is     2120.1 secs

     total energy              =   -1773.25181635 Ry
     Harris-Foulkes estimate   =   -1773.25674716 Ry
     estimated scf accuracy    <       0.04177969 Ry

     iteration #  8     ecut=    40.00 Ry     beta= 0.40
     Davidson diagonalization with overlap
     ethr =  1.12E-05,  avg # of iterations =  8.5

     negative rho (up, down):  1.756E-02 0.000E+00

     total cpu time spent up to now is     2388.0 secs

     total energy              =   -1773.25189287 Ry
     Harris-Foulkes estimate   =   -1773.25392399 Ry
     estimated scf accuracy    <       0.03208386 Ry

     iteration #  9     ecut=    40.00 Ry     beta= 0.40
     Davidson diagonalization with overlap
     ethr =  8.58E-06,  avg # of iterations = 10.8

     negative rho (up, down):  1.477E-01 0.000E+00

     total cpu time spent up to now is     2656.0 secs

     total energy              =   -1773.25391215 Ry
     Harris-Foulkes estimate   =   -1773.25386399 Ry
     estimated scf accuracy    <       0.02566855 Ry

     iteration # 10     ecut=    40.00 Ry     beta= 0.40
     Davidson diagonalization with overlap
     c_bands:  1 eigenvalues not converged
     c_bands:  1 eigenvalues not converged
     ethr =  6.86E-06,  avg # of iterations = 15.2

     negative rho (up, down):  1.678E-01 0.000E+00

     total cpu time spent up to now is     2927.7 secs

     total energy              =   -1773.24515023 Ry
     Harris-Foulkes estimate   =   -1773.25436362 Ry
     estimated scf accuracy    <       0.02048469 Ry

     iteration # 11     ecut=    40.00 Ry     beta= 0.40
     Davidson diagonalization with overlap
     ethr =  5.48E-06,  avg # of iterations = 12.8

     negative rho (up, down):  1.887E-01 0.000E+00

     total cpu time spent up to now is     3246.6 secs

     total energy              =   -1773.24243084 Ry
     Harris-Foulkes estimate   =   -1773.24720248 Ry
     estimated scf accuracy    <       0.01192561 Ry

     iteration # 12     ecut=    40.00 Ry     beta= 0.40
     Davidson diagonalization with overlap
     c_bands:  1 eigenvalues not converged
     ethr =  3.19E-06,  avg # of iterations = 14.5

     negative rho (up, down):  1.647E-01 0.000E+00

     total cpu time spent up to now is     3517.2 secs

     total energy              =   -1773.24267972 Ry
     Harris-Foulkes estimate   =   -1773.24323016 Ry
     estimated scf accuracy    <       0.00789975 Ry

     iteration # 13     ecut=    40.00 Ry     beta= 0.40
     Davidson diagonalization with overlap
     ethr =  2.11E-06,  avg # of iterations = 11.2

     negative rho (up, down):  1.211E-01 0.000E+00

     total cpu time spent up to now is     3807.4 secs

     total energy              =   -1773.23966569 Ry
     Harris-Foulkes estimate   =   -1773.24308270 Ry
     estimated scf accuracy    <       0.00491565 Ry

     iteration # 14     ecut=    40.00 Ry     beta= 0.40
     Davidson diagonalization with overlap
     ethr =  1.31E-06,  avg # of iterations =  8.8

     negative rho (up, down):  7.338E-02 0.000E+00

     total cpu time spent up to now is     4103.5 secs

     total energy              =   -1773.24007548 Ry
     Harris-Foulkes estimate   =   -1773.24006998 Ry
     estimated scf accuracy    <       0.00209834 Ry

     iteration # 15     ecut=    40.00 Ry     beta= 0.40
     Davidson diagonalization with overlap
     c_bands:  1 eigenvalues not converged
     c_bands:  1 eigenvalues not converged
     ethr =  5.61E-07,  avg # of iterations = 15.0

     negative rho (up, down):  4.409E-02 0.000E+00

     total cpu time spent up to now is     4384.4 secs

     total energy              =   -1773.23929447 Ry
     Harris-Foulkes estimate   =   -1773.24016674 Ry
     estimated scf accuracy    <       0.00132191 Ry

     iteration # 16     ecut=    40.00 Ry     beta= 0.40
     Davidson diagonalization with overlap
     c_bands:  1 eigenvalues not converged
     ethr =  3.53E-07,  avg # of iterations = 14.2

     negative rho (up, down):  3.144E-02 0.000E+00

     total cpu time spent up to now is     4710.7 secs

     total energy              =   -1773.23938383 Ry
     Harris-Foulkes estimate   =   -1773.23944651 Ry
     estimated scf accuracy    <       0.00014627 Ry

     iteration # 17     ecut=    40.00 Ry     beta= 0.40
     Davidson diagonalization with overlap
     c_bands:  1 eigenvalues not converged
     ethr =  3.91E-08,  avg # of iterations =  8.8

     negative rho (up, down):  8.767E-03 0.000E+00

     total cpu time spent up to now is     4966.9 secs

     total energy              =   -1773.23949059 Ry
     Harris-Foulkes estimate   =   -1773.23939053 Ry
     estimated scf accuracy    <       0.00007048 Ry

     iteration # 18     ecut=    40.00 Ry     beta= 0.40
     Davidson diagonalization with overlap
     c_bands:  1 eigenvalues not converged
     ethr =  1.88E-08,  avg # of iterations = 14.8

     negative rho (up, down):  6.679E-03 0.000E+00

     total cpu time spent up to now is     5299.1 secs

     total energy              =   -1773.23950574 Ry
     Harris-Foulkes estimate   =   -1773.23950340 Ry
     estimated scf accuracy    <       0.00001681 Ry

     iteration # 19     ecut=    40.00 Ry     beta= 0.40
     Davidson diagonalization with overlap
     ethr =  4.50E-09,  avg # of iterations =  5.8

     negative rho (up, down):  5.336E-03 0.000E+00

     total cpu time spent up to now is     5526.0 secs

     total energy              =   -1773.23949777 Ry
     Harris-Foulkes estimate   =   -1773.23950665 Ry
     estimated scf accuracy    <       0.00001169 Ry

     iteration # 20     ecut=    40.00 Ry     beta= 0.40
     Davidson diagonalization with overlap
     ethr =  3.13E-09,  avg # of iterations =  7.0

     negative rho (up, down):  5.525E-03 0.000E+00

     total cpu time spent up to now is     5758.5 secs

     total energy              =   -1773.23949319 Ry
     Harris-Foulkes estimate   =   -1773.23949825 Ry
     estimated scf accuracy    <       0.00000704 Ry

     iteration # 21     ecut=    40.00 Ry     beta= 0.40
     Davidson diagonalization with overlap
     ethr =  1.88E-09,  avg # of iterations =  2.0

     negative rho (up, down):  6.009E-03 0.000E+00

     total cpu time spent up to now is     5983.3 secs

     total energy              =   -1773.23948601 Ry
     Harris-Foulkes estimate   =   -1773.23949329 Ry
     estimated scf accuracy    <       0.00000509 Ry

     iteration # 22     ecut=    40.00 Ry     beta= 0.40
     Davidson diagonalization with overlap
     ethr =  1.36E-09,  avg # of iterations =  2.0

     negative rho (up, down):  5.646E-03 0.000E+00

     total cpu time spent up to now is     6209.6 secs

     total energy              =   -1773.23948315 Ry
     Harris-Foulkes estimate   =   -1773.23948614 Ry
     estimated scf accuracy    <       0.00000260 Ry

     iteration # 23     ecut=    40.00 Ry     beta= 0.40
     Davidson diagonalization with overlap
     ethr =  6.94E-10,  avg # of iterations =  1.2

     negative rho (up, down):  5.479E-03 0.000E+00

     total cpu time spent up to now is     6425.1 secs

     total energy              =   -1773.23948104 Ry
     Harris-Foulkes estimate   =   -1773.23948322 Ry
     estimated scf accuracy    <       0.00000148 Ry

     iteration # 24     ecut=    40.00 Ry     beta= 0.40
     Davidson diagonalization with overlap
     ethr =  3.95E-10,  avg # of iterations =  2.8

     negative rho (up, down):  4.820E-03 0.000E+00

     total cpu time spent up to now is     6651.4 secs

     End of self-consistent calculation

          k = 0.0000 0.0000 0.0000 (121045 PWs)   bands (ev):

   -24.4537 -21.9125 -21.7571 -21.0785 -21.0616 -20.9969 -20.9890 -20.9882
   -20.9334 -20.9094 -20.6569 -20.2609 -20.2414 -20.1747 -20.1196 -20.0386
   -20.0097 -19.9510 -19.5935 -18.5863 -18.5692 -18.5110 -18.4164 -18.2741
   -18.2514 -18.2067 -18.1139 -17.9107 -17.8957 -17.8344 -17.7777 -17.6880
   -17.6680 -17.6231 -17.5737 -17.5241 -17.5018 -17.4544 -17.3399 -17.2861
   -17.2579 -17.2202 -16.8012 -15.7151 -15.7015 -15.6739 -15.5370 -14.6629
   -14.6512 -14.6318 -14.5814 -14.4732 -14.4585 -14.4280 -14.3795 -13.9492
   -13.9393 -13.9046 -13.8785 -13.8497 -13.8301 -13.8079 -13.7510 -13.5360
   -13.5196 -13.5024 -13.4528 -13.3709 -13.3471 -13.3265 -13.2733 -12.2653
   -12.2630 -12.2380 -12.2337 -12.1444 -12.1179 -12.1066 -12.0679 -11.2068
   -11.1964 -11.1780 -11.1722 -10.7369 -10.7352 -10.6937 -10.6934 -10.2578
   -10.2436 -10.1466 -10.1280 -10.1230  -9.8641  -9.7745  -9.7624  -9.7617
    -9.7224  -9.7141  -9.6479  -9.6471  -9.5412  -9.2636  -9.2541  -9.2342
    -9.2166  -9.1259  -9.1210  -9.1193  -9.0953  -9.0945  -9.0884  -9.0852
    -9.0540  -8.9289  -8.8644  -8.8583  -8.8469  -8.7280  -8.5631  -8.5599
    -8.5207  -8.4245  -8.4204  -8.3849  -8.3836  -8.3273  -8.2899  -8.2837
    -8.2756  -8.2717  -8.2275  -8.0834  -8.0093  -8.0053  -8.0015  -7.9811
    -7.9634  -7.8503  -7.7732  -7.7624  -7.7600  -7.7168  -7.5830  -7.4660
    -7.4099  -7.1976  -7.1423  -7.0588  -7.0555  -7.0514  -7.0103  -6.9914
    -6.9878  -6.9792  -6.3824  -6.3272  -6.0659  -5.9552  -5.9444  -5.7842
    -5.7086  -5.6798  -5.5846  -5.4672  -5.4607  -5.4533  -5.4317  -5.3483
    -5.3464  -5.3421  -5.3165  -5.2479  -5.2012  -5.1552  -4.9794  -4.9365
    -4.9037  -4.8823  -4.8775  -4.6073  -4.4634  -4.4441  -4.0821  -3.4689
    -3.2580  -3.1830  -2.9594  -1.6674  -1.3439  -1.3180  -1.0176  -0.7267
    -0.0446  -0.0196   0.0787   0.0901   0.2576   0.2712   0.3259   0.3412
     0.4709   0.5453   0.5523   0.5574   0.5851   0.7446   0.8020   0.8923
     0.9409   0.9569   1.1217   1.1970   1.3871   1.6351   1.7185   1.7231
     1.7635   1.8145   1.8377   1.8419   1.8553   1.9829   2.0675   2.0800

          k = 0.0000-1.0670 0.0000 (120926 PWs)   bands (ev):

   -24.4535 -21.5104 -21.5038 -21.4524 -21.4470 -21.4153 -21.3868 -21.3575
   -20.9978 -19.8766 -19.8669 -19.7920 -19.7741 -19.7207 -19.7157 -19.7087
   -19.6892 -19.6442 -19.6347 -19.6190 -19.5697 -19.5507 -19.5031 -19.4691
   -18.9439 -18.2396 -18.2227 -18.1662 -18.0665 -17.7840 -17.7663 -17.7084
   -17.5263 -16.7739 -16.7611 -16.7160 -16.6565 -16.6404 -16.6207 -16.5265
   -16.5071 -16.4671 -16.2656 -16.1537 -16.1390 -16.1064 -16.0356 -15.5721
   -15.4474 -15.0142 -15.0011 -14.9712 -14.9323 -14.7285 -14.7198 -14.6893
   -14.5710 -14.2524 -14.2388 -14.2119 -14.1685 -14.1551 -14.1470 -14.1206
   -14.0858 -12.4541 -12.4372 -12.4187 -12.4046 -11.7216 -11.7114 -11.6894
   -11.6846 -11.5290 -11.4962 -11.4871 -11.4435 -11.2968 -11.2514 -11.2101
   -11.2065 -11.0296 -10.9844 -10.9726 -10.9539 -10.8716 -10.8708 -10.8412
   -10.8407 -10.7960 -10.7874 -10.7565 -10.7556 -10.5150 -10.5135 -10.4937
   -10.4923  -9.7903  -9.7853  -9.7730  -9.7342  -9.7127  -9.7117  -9.6740
    -9.5953  -9.3666  -9.3258  -9.3249  -9.3046  -9.1043  -9.0617  -9.0208
    -9.0089  -8.9130  -8.8615  -8.8524  -8.8447  -8.8121  -8.7923  -8.6073
    -8.5535  -8.5073  -8.5063  -8.2723  -8.1479  -8.1007  -8.0534  -8.0508
    -8.0339  -7.9646  -7.9610  -7.9495  -7.8213  -7.7981  -7.6503  -7.6200
    -7.6164  -7.5743  -7.4539  -7.3448  -7.3181  -7.2367  -7.2210  -7.1994
    -7.1985  -7.0954  -7.0360  -7.0068  -6.9948  -6.8817  -6.8610  -6.8158
    -6.8153  -6.7951  -6.7847  -6.4625  -6.3504  -6.2931  -6.2927  -6.2802
    -6.2772  -6.2195  -6.2180  -6.2000  -5.9275  -5.8435  -5.6268  -5.5651
    -5.4339  -5.2932  -5.1850  -5.0532  -4.7392  -4.7341  -4.6881  -4.5604
    -4.4656  -4.3499  -4.3130  -4.2005  -4.0812  -3.8691  -3.8141  -3.7501
    -3.6711  -3.5563  -3.0783  -1.8300  -0.9444  -0.9183  -0.8396  -0.7315
    -0.6917  -0.6884  -0.5136  -0.4662  -0.4569  -0.4440  -0.3580  -0.2683
     0.0354   0.1456   0.3111   0.4839   0.8095   0.9562   1.1200   1.1292
     1.1997   1.2117   1.3582   1.4192   1.4662   1.4686   1.5549   1.7100
     1.7734   2.2201   2.2233   2.2831   2.3043   2.3154   2.4360   2.4462

          k =-0.5000-0.5573 0.0000 (120880 PWs)   bands (ev):

   -24.4536 -21.6990 -21.6715 -21.6014 -21.4497 -20.8984 -20.8863 -20.8070
   -20.8046 -20.7884 -20.7442 -20.6993 -20.3745 -19.8453 -19.8190 -19.7671
   -19.6071 -19.1780 -19.1574 -19.1016 -19.0162 -18.8525 -18.8342 -18.7708
   -18.6678 -18.4674 -18.4482 -18.3924 -18.3214 -18.2616 -18.2324 -18.1879
   -17.8090 -16.9586 -16.9441 -16.8975 -16.8417 -16.7555 -16.5693 -16.5404
   -16.5251 -16.5022 -16.4484 -15.5798 -15.5512 -15.5328 -15.5309 -15.4913
   -15.4416 -15.3408 -15.3331 -15.2999 -15.1185 -14.5318 -14.5260 -14.5153
   -14.4757 -14.4583 -14.4386 -14.4142 -14.3253 -13.1098 -13.0851 -13.0644
   -13.0216 -12.7565 -12.7365 -12.7192 -12.6958 -12.6945 -12.6844 -12.6806
   -12.6620 -12.2786 -12.2724 -12.2435 -12.2367 -11.5266 -11.5112 -11.4702
   -11.4684 -10.9404 -10.9304 -10.8756 -10.8749 -10.3992 -10.3374 -10.3274
   -10.3123 -10.1991 -10.1673 -10.1376 -10.1347 -10.0051  -9.9309  -9.7637
    -9.6452  -9.6410  -9.6040  -9.4209  -9.3968  -9.3939  -9.3893  -9.3691
    -9.3671  -9.3044  -9.3037  -9.2780  -9.2568  -9.1289  -9.0883  -9.0309
    -9.0258  -9.0208  -9.0130  -8.9525  -8.9046  -8.8845  -8.8841  -8.8496
    -8.8242  -8.6898  -8.6858  -8.6530  -8.6146  -8.5873  -8.5850  -8.3695
    -8.3236  -8.3138  -8.2127  -8.1633  -8.1623  -8.1360  -8.1199  -8.0553
    -7.7728  -7.6144  -7.5079  -7.1274  -7.1134  -7.1036  -7.1007  -7.0927
    -7.0710  -7.0694  -7.0603  -7.0421  -6.9634  -6.8318  -6.6808  -6.5734
    -6.5281  -6.3768  -6.3152  -6.3073  -6.3058  -6.2728  -6.2375  -6.1815
    -6.0774  -6.0263  -5.9930  -5.8982  -5.8953  -5.8753  -5.8748  -5.8111
    -5.7040  -5.6655  -5.4849  -5.4445  -4.9372  -4.7451  -4.6883  -4.5814
    -4.5384  -4.5219  -4.4362  -4.3652  -4.2751  -4.2552  -3.7850  -3.1837
    -2.9473  -2.8203  -2.5112  -2.0625  -1.6635  -1.6368  -1.4009  -1.1122
    -0.6717  -0.6415  -0.5723  -0.4409  -0.3306  -0.2645  -0.2025  -0.1060
     0.1399   0.8615   0.8883   1.1072   1.1903   1.2119   1.2341   1.3272
     1.3631   1.4032   1.4664   1.5494   1.6929   1.7911   1.9621   1.9633
     1.9650   1.9691   2.0194   2.0315   2.1140   2.1187   2.1759   2.1824

          k =-0.5000-1.6243 0.0000 (120890 PWs)   bands (ev):

   -24.4536 -21.7231 -21.6908 -21.6208 -21.4574 -20.8408 -20.8247 -20.7548
   -20.7420 -20.7254 -20.6804 -20.6361 -20.3723 -20.0277 -20.0023 -19.9456
   -19.7382 -19.2735 -19.2581 -19.1895 -19.1215 -18.9537 -18.9314 -18.8735
   -18.6351 -18.1788 -18.1577 -18.1134 -18.0437 -17.9681 -17.9420 -17.8983
   -17.6896 -16.8296 -16.8243 -16.8226 -16.8100 -16.7711 -16.7590 -16.7519
   -16.6697 -16.5615 -16.5111 -16.4627 -16.4455 -16.4133 -15.9646 -15.5766
   -15.5503 -15.1888 -15.1818 -15.1547 -15.1252 -13.9437 -13.9238 -13.9043
   -13.8653 -13.7979 -13.7768 -13.7688 -13.7383 -13.7370 -13.7107 -13.7019
   -13.6274 -12.8361 -12.8181 -12.8022 -12.7803 -12.7207 -12.7073 -12.6806
   -12.6547 -11.7260 -11.7176 -11.6886 -11.6825 -11.6488 -11.6329 -11.6219
   -11.5834 -11.4514 -11.4385 -11.4188 -11.4120 -10.7275 -10.7002 -10.6939
   -10.6561 -10.2999 -10.2507 -10.2151 -10.2135 -10.1266 -10.0920 -10.0871
   -10.0559 -10.0416  -9.9358  -9.3627  -9.3056  -9.2793  -9.1756  -8.9755
    -8.9430  -8.9023  -8.8880  -8.8748  -8.8736  -8.8070  -8.7998  -8.7802
    -8.7463  -8.7225  -8.7145  -8.7119  -8.7105  -8.7067  -8.6844  -8.6552
    -8.6109  -8.6053  -8.6039  -8.6020  -8.5919  -8.5915  -8.5719  -8.3993
    -8.3019  -8.2360  -8.2350  -8.2275  -8.2132  -8.1691  -8.1103  -7.9852
    -7.9606  -7.6866  -7.6289  -7.5831  -7.5827  -7.5066  -7.3916  -7.3636
    -7.2411  -7.2235  -7.2185  -7.2135  -7.1084  -7.0293  -6.8332  -6.7574
    -6.5961  -6.4676  -6.3686  -6.2075  -6.2060  -6.2020  -6.1437  -6.1374
    -6.0334  -5.9235  -5.8731  -5.8555  -5.8552  -5.8445  -5.6307  -5.5781
    -5.4419  -5.2572  -5.1631  -4.8825  -4.8291  -4.7013  -4.6117  -4.4710
    -4.4228  -4.3914  -4.3908  -4.3541  -4.2517  -4.1812  -4.0422  -4.0297
    -3.9710  -3.9532  -3.5562  -1.3662  -0.7723  -0.7265  -0.5442  -0.5267
    -0.4274  -0.4222  -0.3934  -0.3540  -0.3057  -0.2866  -0.1660  -0.1528
     0.2389   0.2434   0.7665   0.7904   0.8371   0.8570   0.9309   0.9559
     1.0895   1.0996   1.1706   1.2414   1.3014   1.7897   1.8960   1.9327
     1.9360   2.0444   2.0553   2.1142   2.1449   2.1536   2.1961   2.2096

     the Fermi energy is    -2.3303 ev

!    total energy              =   -1773.23948867 Ry
     Harris-Foulkes estimate   =   -1773.23948111 Ry
     estimated scf accuracy    <       0.00000056 Ry

     total all-electron energy =     -7197.772345 Ry

     The total energy is the sum of the following terms:

     one-electron contribution =  -30363.75346233 Ry
     hartree contribution      =   15253.46677704 Ry
     xc contribution           =    -447.83774466 Ry
     ewald contribution        =   14385.42732856 Ry
     one-center paw contrib.   =    -600.15746835 Ry
     smearing contrib. (-TS)   =      -0.38491893 Ry

     convergence has been achieved in  24 iterations

     Writing output data file CNT_ox.save/

     init_run     :    144.85s CPU    147.12s WALL (       1 calls)
     electrons    :   6420.05s CPU   6503.72s WALL (       1 calls)

     Called by init_run:
     wfcinit      :    127.30s CPU    128.19s WALL (       1 calls)
     potinit      :      7.22s CPU      7.94s WALL (       1 calls)
     hinit0       :      4.77s CPU      4.86s WALL (       1 calls)

     Called by electrons:
     c_bands      :   5329.59s CPU   5369.07s WALL (      24 calls)
     sum_band     :    716.18s CPU    729.96s WALL (      24 calls)
     v_of_rho     :    127.94s CPU    142.94s WALL (      25 calls)
     newd         :    123.46s CPU    133.59s WALL (      25 calls)
     PAW_pot      :      3.47s CPU      3.49s WALL (      25 calls)
     mix_rho      :    124.41s CPU    130.50s WALL (      24 calls)

     Called by c_bands:
     init_us_2    :      8.52s CPU      8.59s WALL (     196 calls)
     cegterg      :   5298.71s CPU   5337.89s WALL (      96 calls)

     Called by sum_band:
     sum_band:bec :      0.34s CPU      0.34s WALL (      96 calls)
     addusdens    :     85.62s CPU     93.85s WALL (      24 calls)

     Called by *egterg:
     h_psi        :   2554.85s CPU   2581.52s WALL (     942 calls)
     s_psi        :    728.68s CPU    730.22s WALL (     942 calls)
     g_psi        :      1.09s CPU      1.09s WALL (     842 calls)
     cdiaghg      :    219.07s CPU    221.87s WALL (     938 calls)

     Called by h_psi:
     h_psi:pot    :   2553.36s CPU   2577.49s WALL (     942 calls)
     h_psi:calbec :   1149.13s CPU   1151.75s WALL (     942 calls)
     vloc_psi     :    376.03s CPU    395.32s WALL (     942 calls)
     add_vuspsi   :   1028.19s CPU   1030.40s WALL (     942 calls)

     General routines
     calbec       :   1632.25s CPU   1635.99s WALL (    1038 calls)
     fft          :    148.25s CPU    151.48s WALL (    1573 calls)
     ffts         :     67.84s CPU     73.36s WALL (   10936 calls)
     fftw         :    425.01s CPU    446.87s WALL (  124298 calls)
     interpolate  :      2.10s CPU      2.16s WALL (      25 calls)

     Parallel routines
     fft_scatt_xy :     57.13s CPU     59.25s WALL (  136807 calls)
     fft_scatt_yz :    375.20s CPU    397.02s WALL (  136807 calls)

     PWSCF        :      1h49m CPU      1h50m WALL


   This run was terminated on:  14:27:17   7Oct2024            

=------------------------------------------------------------------------------=
   JOB DONE.
=------------------------------------------------------------------------------=
