
     Program PWSCF v.6.5 starts on 20Feb2021 at 11:18:54 

     This program is part of the open-source Quantum ESPRESSO suite
     for quantum simulation of materials; please cite
         "P. Giannozzi et al., J. Phys.:Condens. Matter 21 395502 (2009);
         "P. Giannozzi et al., J. Phys.:Condens. Matter 29 465901 (2017);
          URL http://www.quantum-espresso.org", 
     in publications or presentations arising from this work. More details at
     http://www.quantum-espresso.org/quote

     Parallel version (MPI & OpenMP), running on      20 processor cores
     Number of MPI processes:                20
     Threads/MPI process:                     1

     MPI processes distributed on     1 nodes
     R & G space division:  proc/nbgrp/npool/nimage =      20
     Reading input from v2o5.vc.in

     Current dimensions of program PWSCF are:
     Max number of different atomic species (ntypx) = 10
     Max number of k-points (npk) =  40000
     Max angular momentum in pseudopotentials (lmaxx) =  3
               file V.pbesol-spnl-kjpaw_psl.1.0.0.UPF: wavefunction(s)  3P 3D renormalized
               file O.pbesol-n-kjpaw_psl.1.0.0.UPF: wavefunction(s)  2S 2P renormalized

     Subspace diagonalization in iterative solution of the eigenvalue problem:
     a serial algorithm will be used

     Message from routine setup:
     using ibrav=0 with symmetry is DISCOURAGED, use correct ibrav instead
 
     Parallelization info
     --------------------
     sticks:   dense  smooth     PW     G-vecs:    dense   smooth      PW
     Min         159      64     17                18925     4786     683
     Max         160      65     18                18938     4791     690
     Sum        3199    1285    355               378643    95745   13729
 


     bravais-lattice index     =            0
     lattice parameter (alat)  =       6.8383  a.u.
     unit-cell volume          =    1353.2532 (a.u.)^3
     number of atoms/cell      =           14
     number of atomic types    =            2
     number of electrons       =       112.00
     number of Kohn-Sham states=           67
     kinetic-energy cutoff     =      65.0000  Ry
     charge density cutoff     =     650.0000  Ry
     convergence threshold     =      1.0E-10
     mixing beta               =       0.2000
     number of iterations used =            8  local-TF  mixing
     Exchange-correlation= SLA PW PSX PSC
                           (   1   4  10   8   0   0   0)
     nstep                     =          500


     celldm(1)=   6.838273  celldm(2)=   0.000000  celldm(3)=   0.000000
     celldm(4)=   0.000000  celldm(5)=   0.000000  celldm(6)=   0.000000

     crystal axes: (cart. coord. in units of alat)
               a(1) = (   1.000000   0.000000   0.000000 )  
               a(2) = (   0.000000   1.325711   0.000000 )  
               a(3) = (   0.000000   0.000000   3.192208 )  

     reciprocal axes: (cart. coord. in units 2 pi/alat)
               b(1) = (  1.000000  0.000000  0.000000 )  
               b(2) = (  0.000000  0.754312  0.000000 )  
               b(3) = (  0.000000  0.000000  0.313263 )  


     PseudoPot. # 1 for V  read from file:
     ~/pseudos/V.pbesol-spnl-kjpaw_psl.1.0.0.UPF
     MD5 check sum: Not computed, couldn't open file
     Pseudo is Projector augmented-wave + core cor, Zval = 13.0
     Generated using "atomic" code by A. Dal Corso v.6.3
     Shape of augmentation charge: PSQ
     Using radial grid of 1181 points,  6 beta functions with: 
                l(1) =   0
                l(2) =   0
                l(3) =   1
                l(4) =   1
                l(5) =   2
                l(6) =   2
     Q(r) pseudized with 0 coefficients 


     PseudoPot. # 2 for O  read from file:
     ~/pseudos/O.pbesol-n-kjpaw_psl.1.0.0.UPF
     MD5 check sum: Not computed, couldn't open file
     Pseudo is Projector augmented-wave + core cor, Zval =  6.0
     Generated using "atomic" code by A. Dal Corso v.6.3
     Shape of augmentation charge: PSQ
     Using radial grid of 1095 points,  4 beta functions with: 
                l(1) =   0
                l(2) =   0
                l(3) =   1
                l(4) =   1
     Q(r) pseudized with 0 coefficients 


     atomic species   valence    mass     pseudopotential
        V             13.00    50.94150     V ( 1.00)
        O              6.00    15.99940     O ( 1.00)

      8 Sym. Ops., with inversion, found ( 4 have fractional translation)



   Cartesian axes

     site n.     atom                  positions (alat units)
         1           V   tau(   1) = (   0.0000000   0.5147296   2.0733261  )
         2           V   tau(   2) = (   0.5000000   0.8109809   2.7149854  )
         3           V   tau(   3) = (   0.5000000   0.8109809   0.4772223  )
         4           V   tau(   4) = (   0.0000000   0.5147296   1.1188816  )
         5           O   tau(   5) = (   0.5000000   0.6473219   2.1765621  )
         6           O   tau(   6) = (   0.0000000   0.6783886   2.6117494  )
         7           O   tau(   7) = (   0.0000000   0.6783886   0.5804583  )
         8           O   tau(   8) = (   0.5000000   0.6473219   1.0156456  )
         9           O   tau(   9) = (   0.0000000   0.0700863   1.1331571  )
        10           O   tau(  10) = (   0.5000000   1.2556242   0.4629467  )
        11           O   tau(  11) = (   0.5000000   1.2556242   2.7292610  )
        12           O   tau(  12) = (   0.5000000   0.6645389   0.0000000  )
        13           O   tau(  13) = (   0.0000000   0.6611716   1.5961039  )
        14           O   tau(  14) = (   0.0000000   0.0700863   2.0590506  )

     number of k points=     4  Gaussian smearing, width (Ry)=  0.0200
                       cart. coord. in units 2pi/alat
        k(    1) = (   0.0000000   0.0000000   0.0000000), wk =   0.2222222
        k(    2) = (   0.0000000   0.2514375   0.0000000), wk =   0.4444444
        k(    3) = (   0.3333333   0.0000000   0.0000000), wk =   0.4444444
        k(    4) = (   0.3333333   0.2514375   0.0000000), wk =   0.8888889

     Dense  grid:   378643 G-vectors     FFT dimensions: (  60,  75, 180)

     Smooth grid:    95745 G-vectors     FFT dimensions: (  36,  48, 120)

     Estimated max dynamical RAM per process >      89.93 MB

     Estimated total dynamical RAM >       1.76 GB

     Check: negative core charge=   -0.000001

     Initial potential from superposition of free atoms

     starting charge  111.99661, renormalised to  112.00000
     Starting wfcs are   80 randomized atomic wfcs
     Checking if some PAW data can be deallocated... 

     total cpu time spent up to now is        5.0 secs

     Self-consistent Calculation

     iteration #  1     ecut=    65.00 Ry     beta= 0.20
     Davidson diagonalization with overlap
     ethr =  1.00E-02,  avg # of iterations =  2.0

     total cpu time spent up to now is        6.3 secs

     total energy              =   -1260.54440349 Ry
     Harris-Foulkes estimate   =   -1261.69815959 Ry
     estimated scf accuracy    <       8.38069751 Ry

     iteration #  2     ecut=    65.00 Ry     beta= 0.20
     Davidson diagonalization with overlap
     ethr =  7.48E-03,  avg # of iterations =  1.0

     total cpu time spent up to now is        7.4 secs

     total energy              =   -1258.93138620 Ry
     Harris-Foulkes estimate   =   -1260.83211999 Ry
     estimated scf accuracy    <       4.47377343 Ry

     iteration #  3     ecut=    65.00 Ry     beta= 0.20
     Davidson diagonalization with overlap
     ethr =  3.99E-03,  avg # of iterations =  5.0

     total cpu time spent up to now is        9.1 secs

     total energy              =   -1260.15511303 Ry
     Harris-Foulkes estimate   =   -1261.34288393 Ry
     estimated scf accuracy    <      11.90376216 Ry

     iteration #  4     ecut=    65.00 Ry     beta= 0.20
     Davidson diagonalization with overlap
     ethr =  3.99E-03,  avg # of iterations =  1.0

     total cpu time spent up to now is       10.2 secs

     total energy              =   -1260.06009605 Ry
     Harris-Foulkes estimate   =   -1260.47662011 Ry
     estimated scf accuracy    <       2.80005927 Ry

     iteration #  5     ecut=    65.00 Ry     beta= 0.20
     Davidson diagonalization with overlap
     ethr =  2.50E-03,  avg # of iterations =  4.2

     negative rho (up, down):  1.295E-04 0.000E+00

     total cpu time spent up to now is       11.6 secs

     total energy              =   -1260.47476318 Ry
     Harris-Foulkes estimate   =   -1260.46925970 Ry
     estimated scf accuracy    <       0.15283281 Ry

     iteration #  6     ecut=    65.00 Ry     beta= 0.20
     Davidson diagonalization with overlap
     ethr =  1.36E-04,  avg # of iterations =  5.0

     negative rho (up, down):  2.482E-04 0.000E+00

     total cpu time spent up to now is       13.5 secs

     total energy              =   -1260.38813788 Ry
     Harris-Foulkes estimate   =   -1260.70544594 Ry
     estimated scf accuracy    <       1.45094574 Ry

     iteration #  7     ecut=    65.00 Ry     beta= 0.20
     Davidson diagonalization with overlap
     ethr =  1.36E-04,  avg # of iterations =  5.2

     negative rho (up, down):  4.739E-04 0.000E+00

     total cpu time spent up to now is       15.2 secs

     total energy              =   -1260.50026052 Ry
     Harris-Foulkes estimate   =   -1260.51362836 Ry
     estimated scf accuracy    <       0.03466090 Ry

     iteration #  8     ecut=    65.00 Ry     beta= 0.20
     Davidson diagonalization with overlap
     ethr =  3.09E-05,  avg # of iterations =  5.5

     negative rho (up, down):  9.572E-04 0.000E+00

     total cpu time spent up to now is       17.0 secs

     total energy              =   -1260.48377267 Ry
     Harris-Foulkes estimate   =   -1260.53275242 Ry
     estimated scf accuracy    <       0.23661589 Ry

     iteration #  9     ecut=    65.00 Ry     beta= 0.20
     Davidson diagonalization with overlap
     ethr =  3.09E-05,  avg # of iterations =  6.8

     negative rho (up, down):  7.514E-04 0.000E+00

     total cpu time spent up to now is       18.7 secs

     total energy              =   -1260.50781747 Ry
     Harris-Foulkes estimate   =   -1260.50716865 Ry
     estimated scf accuracy    <       0.00181784 Ry

     iteration # 10     ecut=    65.00 Ry     beta= 0.20
     Davidson diagonalization with overlap
     ethr =  1.62E-06,  avg # of iterations =  5.2

     negative rho (up, down):  7.201E-04 0.000E+00

     total cpu time spent up to now is       20.5 secs

     total energy              =   -1260.51009172 Ry
     Harris-Foulkes estimate   =   -1260.51073797 Ry
     estimated scf accuracy    <       0.00645866 Ry

     iteration # 11     ecut=    65.00 Ry     beta= 0.20
     Davidson diagonalization with overlap
     ethr =  1.62E-06,  avg # of iterations =  1.2

     negative rho (up, down):  5.840E-04 0.000E+00

     total cpu time spent up to now is       21.6 secs

     total energy              =   -1260.51033599 Ry
     Harris-Foulkes estimate   =   -1260.51022177 Ry
     estimated scf accuracy    <       0.00286639 Ry

     iteration # 12     ecut=    65.00 Ry     beta= 0.20
     Davidson diagonalization with overlap
     ethr =  1.62E-06,  avg # of iterations =  4.2

     negative rho (up, down):  5.670E-04 0.000E+00

     total cpu time spent up to now is       23.1 secs

     total energy              =   -1260.51152416 Ry
     Harris-Foulkes estimate   =   -1260.51089015 Ry
     estimated scf accuracy    <       0.00407663 Ry

     iteration # 13     ecut=    65.00 Ry     beta= 0.20
     Davidson diagonalization with overlap
     ethr =  1.62E-06,  avg # of iterations =  2.2

     negative rho (up, down):  5.746E-04 0.000E+00

     total cpu time spent up to now is       24.2 secs

     total energy              =   -1260.51018013 Ry
     Harris-Foulkes estimate   =   -1260.51168698 Ry
     estimated scf accuracy    <       0.00825744 Ry

     iteration # 14     ecut=    65.00 Ry     beta= 0.20
     Davidson diagonalization with overlap
     ethr =  1.62E-06,  avg # of iterations =  4.2

     negative rho (up, down):  5.921E-04 0.000E+00

     total cpu time spent up to now is       25.6 secs

     total energy              =   -1260.51054032 Ry
     Harris-Foulkes estimate   =   -1260.51066103 Ry
     estimated scf accuracy    <       0.00086042 Ry

     iteration # 15     ecut=    65.00 Ry     beta= 0.20
     Davidson diagonalization with overlap
     ethr =  7.68E-07,  avg # of iterations =  4.8

     negative rho (up, down):  5.951E-04 0.000E+00

     total cpu time spent up to now is       27.0 secs

     total energy              =   -1260.51071080 Ry
     Harris-Foulkes estimate   =   -1260.51070051 Ry
     estimated scf accuracy    <       0.00008977 Ry

     iteration # 16     ecut=    65.00 Ry     beta= 0.20
     Davidson diagonalization with overlap
     ethr =  8.02E-08,  avg # of iterations =  5.0

     negative rho (up, down):  6.010E-04 0.000E+00

     total cpu time spent up to now is       28.7 secs

     total energy              =   -1260.51076215 Ry
     Harris-Foulkes estimate   =   -1260.51074601 Ry
     estimated scf accuracy    <       0.00003506 Ry

     iteration # 17     ecut=    65.00 Ry     beta= 0.20
     Davidson diagonalization with overlap
     ethr =  3.13E-08,  avg # of iterations =  1.5

     negative rho (up, down):  6.092E-04 0.000E+00

     total cpu time spent up to now is       29.8 secs

     total energy              =   -1260.51075949 Ry
     Harris-Foulkes estimate   =   -1260.51076302 Ry
     estimated scf accuracy    <       0.00003148 Ry

     iteration # 18     ecut=    65.00 Ry     beta= 0.20
     Davidson diagonalization with overlap
     ethr =  2.81E-08,  avg # of iterations =  5.5

     negative rho (up, down):  6.256E-04 0.000E+00

     total cpu time spent up to now is       31.3 secs

     total energy              =   -1260.51077382 Ry
     Harris-Foulkes estimate   =   -1260.51076769 Ry
     estimated scf accuracy    <       0.00001165 Ry

     iteration # 19     ecut=    65.00 Ry     beta= 0.20
     Davidson diagonalization with overlap
     ethr =  1.04E-08,  avg # of iterations =  5.0

     negative rho (up, down):  6.330E-04 0.000E+00

     total cpu time spent up to now is       32.9 secs

     total energy              =   -1260.51077714 Ry
     Harris-Foulkes estimate   =   -1260.51077807 Ry
     estimated scf accuracy    <       0.00003477 Ry

     iteration # 20     ecut=    65.00 Ry     beta= 0.20
     Davidson diagonalization with overlap
     ethr =  1.04E-08,  avg # of iterations =  1.0

     negative rho (up, down):  6.395E-04 0.000E+00

     total cpu time spent up to now is       34.0 secs

     total energy              =   -1260.51077958 Ry
     Harris-Foulkes estimate   =   -1260.51077837 Ry
     estimated scf accuracy    <       0.00000968 Ry

     iteration # 21     ecut=    65.00 Ry     beta= 0.20
     Davidson diagonalization with overlap
     ethr =  8.64E-09,  avg # of iterations =  4.0

     negative rho (up, down):  6.452E-04 0.000E+00

     total cpu time spent up to now is       35.6 secs

     total energy              =   -1260.51078266 Ry
     Harris-Foulkes estimate   =   -1260.51078191 Ry
     estimated scf accuracy    <       0.00000111 Ry

     iteration # 22     ecut=    65.00 Ry     beta= 0.20
     Davidson diagonalization with overlap
     ethr =  9.89E-10,  avg # of iterations =  5.5

     negative rho (up, down):  6.474E-04 0.000E+00

     total cpu time spent up to now is       37.3 secs

     total energy              =   -1260.51078453 Ry
     Harris-Foulkes estimate   =   -1260.51078325 Ry
     estimated scf accuracy    <       0.00000136 Ry

     iteration # 23     ecut=    65.00 Ry     beta= 0.20
     Davidson diagonalization with overlap
     ethr =  9.89E-10,  avg # of iterations =  2.0

     negative rho (up, down):  6.494E-04 0.000E+00

     total cpu time spent up to now is       38.4 secs

     total energy              =   -1260.51078523 Ry
     Harris-Foulkes estimate   =   -1260.51078456 Ry
     estimated scf accuracy    <       0.00000118 Ry

     iteration # 24     ecut=    65.00 Ry     beta= 0.20
     Davidson diagonalization with overlap
     ethr =  9.89E-10,  avg # of iterations =  2.8

     negative rho (up, down):  6.500E-04 0.000E+00

     total cpu time spent up to now is       39.7 secs

     total energy              =   -1260.51078596 Ry
     Harris-Foulkes estimate   =   -1260.51078534 Ry
     estimated scf accuracy    <       0.00000015 Ry

     iteration # 25     ecut=    65.00 Ry     beta= 0.20
     Davidson diagonalization with overlap
     ethr =  1.33E-10,  avg # of iterations =  5.0

     negative rho (up, down):  6.500E-04 0.000E+00

     total cpu time spent up to now is       41.4 secs

     total energy              =   -1260.51078649 Ry
     Harris-Foulkes estimate   =   -1260.51078603 Ry
     estimated scf accuracy    <       0.00000003 Ry

     iteration # 26     ecut=    65.00 Ry     beta= 0.20
     Davidson diagonalization with overlap
     ethr =  3.11E-11,  avg # of iterations =  5.0

     negative rho (up, down):  6.483E-04 0.000E+00

     total cpu time spent up to now is       42.8 secs

     total energy              =   -1260.51078681 Ry
     Harris-Foulkes estimate   =   -1260.51078649 Ry
     estimated scf accuracy    <       0.00000009 Ry

     iteration # 27     ecut=    65.00 Ry     beta= 0.20
     Davidson diagonalization with overlap
     ethr =  3.11E-11,  avg # of iterations =  3.2

     negative rho (up, down):  6.490E-04 0.000E+00

     total cpu time spent up to now is       44.1 secs

     total energy              =   -1260.51078695 Ry
     Harris-Foulkes estimate   =   -1260.51078681 Ry
     estimated scf accuracy    <       0.00000005 Ry

     iteration # 28     ecut=    65.00 Ry     beta= 0.20
     Davidson diagonalization with overlap
     ethr =  3.11E-11,  avg # of iterations =  5.0

     negative rho (up, down):  6.495E-04 0.000E+00

     total cpu time spent up to now is       45.5 secs

     total energy              =   -1260.51078706 Ry
     Harris-Foulkes estimate   =   -1260.51078696 Ry
     estimated scf accuracy    <          6.5E-09 Ry

     iteration # 29     ecut=    65.00 Ry     beta= 0.20
     Davidson diagonalization with overlap
     ethr =  5.81E-12,  avg # of iterations =  5.0

     negative rho (up, down):  6.497E-04 0.000E+00

     total cpu time spent up to now is       47.2 secs

     total energy              =   -1260.51078712 Ry
     Harris-Foulkes estimate   =   -1260.51078706 Ry
     estimated scf accuracy    <          7.0E-09 Ry

     iteration # 30     ecut=    65.00 Ry     beta= 0.20
     Davidson diagonalization with overlap
     ethr =  5.81E-12,  avg # of iterations =  2.0

     negative rho (up, down):  6.500E-04 0.000E+00

     total cpu time spent up to now is       48.3 secs

     total energy              =   -1260.51078716 Ry
     Harris-Foulkes estimate   =   -1260.51078712 Ry
     estimated scf accuracy    <          7.2E-10 Ry

     iteration # 31     ecut=    65.00 Ry     beta= 0.20
     Davidson diagonalization with overlap
     ethr =  6.47E-13,  avg # of iterations =  5.2

     negative rho (up, down):  6.502E-04 0.000E+00

     total cpu time spent up to now is       50.2 secs

     total energy              =   -1260.51078719 Ry
     Harris-Foulkes estimate   =   -1260.51078716 Ry
     estimated scf accuracy    <          1.5E-09 Ry

     iteration # 32     ecut=    65.00 Ry     beta= 0.20
     Davidson diagonalization with overlap
     ethr =  6.47E-13,  avg # of iterations =  1.0

     negative rho (up, down):  6.503E-04 0.000E+00

     total cpu time spent up to now is       51.3 secs

     total energy              =   -1260.51078721 Ry
     Harris-Foulkes estimate   =   -1260.51078719 Ry
     estimated scf accuracy    <          5.8E-10 Ry

     iteration # 33     ecut=    65.00 Ry     beta= 0.20
     Davidson diagonalization with overlap
     ethr =  5.14E-13,  avg # of iterations =  3.2

     negative rho (up, down):  6.504E-04 0.000E+00

     total cpu time spent up to now is       52.5 secs

     total energy              =   -1260.51078722 Ry
     Harris-Foulkes estimate   =   -1260.51078721 Ry
     estimated scf accuracy    <          4.3E-10 Ry

     iteration # 34     ecut=    65.00 Ry     beta= 0.20
     Davidson diagonalization with overlap
     ethr =  3.80E-13,  avg # of iterations =  1.5

     negative rho (up, down):  6.505E-04 0.000E+00

     total cpu time spent up to now is       53.6 secs

     total energy              =   -1260.51078723 Ry
     Harris-Foulkes estimate   =   -1260.51078722 Ry
     estimated scf accuracy    <          3.1E-10 Ry

     iteration # 35     ecut=    65.00 Ry     beta= 0.20
     Davidson diagonalization with overlap
     ethr =  2.78E-13,  avg # of iterations =  4.5

     negative rho (up, down):  6.509E-04 0.000E+00

     total cpu time spent up to now is       55.1 secs

     End of self-consistent calculation

          k = 0.0000 0.0000 0.0000 ( 11963 PWs)   bands (ev):

   -60.9236 -60.9218 -60.9128 -60.9110 -34.9971 -34.9936 -34.9851 -34.9785
   -34.9493 -34.9031 -34.8759 -34.8640 -34.8619 -34.8321 -34.8286 -34.8263
   -14.5456 -14.4316 -13.4595 -13.3603 -13.2790 -13.2237 -12.8023 -12.7920
   -12.6478 -12.6465  -1.5374  -1.5288  -1.3207  -1.2864  -1.1031  -0.7534
    -0.1349   0.1189   0.2392   0.2400   0.5312   0.6113   0.7192   0.7350
     0.8362   0.8382   1.0046   1.1472   1.1742   1.2697   1.2818   1.3390
     1.5861   1.6698   1.9673   1.9948   2.0489   2.1821   2.2806   2.3589
     4.5683   4.7406   5.9450   6.0744   6.1654   6.2676   6.4716   6.7987
     6.8365   7.1481   7.1519

          k = 0.0000 0.2514 0.0000 ( 11963 PWs)   bands (ev):

   -60.9236 -60.9218 -60.9128 -60.9110 -34.9975 -34.9940 -34.9862 -34.9797
   -34.9491 -34.9031 -34.8758 -34.8641 -34.8618 -34.8321 -34.8286 -34.8264
   -14.5081 -14.4001 -13.4336 -13.3528 -13.2758 -13.2116 -12.8160 -12.7931
   -12.6479 -12.6179  -1.5577  -1.5486  -1.3421  -1.3088  -1.2052  -0.8089
    -0.7531  -0.4513  -0.2987  -0.2247   0.3289   0.3704   0.4580   0.8320
     0.8519   1.0061   1.1576   1.1671   1.3158   1.4760   1.5598   1.7221
     1.8282   1.9178   1.9328   2.0392   2.0938   2.3187   2.3894   2.4878
     4.6141   4.7808   5.9720   6.0771   6.1741   6.2984   6.4592   6.7650
     6.9504   7.1516   7.1551

          k = 0.3333 0.0000 0.0000 ( 11982 PWs)   bands (ev):

   -60.9196 -60.9178 -60.9142 -60.9124 -34.9908 -34.9886 -34.9828 -34.9784
   -34.9490 -34.9292 -34.9135 -34.9094 -34.8592 -34.8562 -34.8421 -34.8309
   -14.0045 -13.8819 -13.3742 -13.2774 -13.2512 -13.1906 -12.7406 -12.7355
   -12.6848 -12.6715  -2.0122  -1.9501  -1.1596  -1.0889  -0.9924  -0.6948
    -0.5719  -0.2553  -0.2456   0.0749   0.0942   0.2478   0.5559   0.6322
     0.6943   0.7791   0.8030   0.8801   0.9767   1.0045   1.2176   1.2380
     1.3681   1.6240   1.9999   2.1212   2.2120   2.3930   2.4704   2.5139
     4.9506   5.1226   5.7526   5.7641   6.0726   6.2956   6.3443   6.3788
     6.7028   6.7214   6.7917

          k = 0.3333 0.2514 0.0000 ( 11965 PWs)   bands (ev):

   -60.9196 -60.9178 -60.9142 -60.9124 -34.9914 -34.9889 -34.9836 -34.9793
   -34.9489 -34.9291 -34.9134 -34.9093 -34.8593 -34.8562 -34.8421 -34.8308
   -13.9723 -13.8586 -13.3558 -13.2762 -13.2409 -13.1798 -12.7492 -12.7303
   -12.6641 -12.6402  -2.0150  -1.9529  -1.1934  -1.1249  -1.0654  -0.7412
    -0.7339  -0.5956  -0.4637  -0.2379  -0.1537  -0.1266   0.3225   0.3531
     0.3733   0.5128   0.6541   0.7399   0.8107   1.1540   1.4536   1.6705
     1.7895   1.8843   2.1824   2.3897   2.4074   2.5679   2.5833   2.6415
     4.9555   5.1119   5.7837   5.7926   6.2160   6.3805   6.3878   6.4102
     6.7050   6.7091   6.7265

     the Fermi energy is     3.6273 ev

!    total energy              =   -1260.51078724 Ry
     Harris-Foulkes estimate   =   -1260.51078723 Ry
     estimated scf accuracy    <          9.2E-11 Ry

     total all-electron energy =     -9087.650722 Ry

     The total energy is the sum of the following terms:

     one-electron contribution =    -642.73317080 Ry
     hartree contribution      =     359.46852769 Ry
     xc contribution           =    -152.53818512 Ry
     ewald contribution        =    -460.83049376 Ry
     one-center paw contrib.   =    -363.87746521 Ry
     smearing contrib. (-TS)   =      -0.00000003 Ry

     convergence has been achieved in  35 iterations

     negative rho (up, down):  6.509E-04 0.000E+00

     Forces acting on atoms (cartesian axes, Ry/au):

     atom    1 type  1   force =     0.00000000   -0.03355861   -0.00826843
     atom    2 type  1   force =     0.00000000    0.03355861    0.00826843
     atom    3 type  1   force =     0.00000000    0.03355861   -0.00826843
     atom    4 type  1   force =     0.00000000   -0.03355861    0.00826843
     atom    5 type  2   force =     0.00000000   -0.00633812    0.00536313
     atom    6 type  2   force =     0.00000000    0.00633812   -0.00536313
     atom    7 type  2   force =     0.00000000    0.00633812    0.00536313
     atom    8 type  2   force =     0.00000000   -0.00633812   -0.00536313
     atom    9 type  2   force =     0.00000000    0.05555167   -0.00248165
     atom   10 type  2   force =     0.00000000   -0.05555167    0.00248165
     atom   11 type  2   force =     0.00000000   -0.05555167   -0.00248165
     atom   12 type  2   force =     0.00000000    0.01644835    0.00000000
     atom   13 type  2   force =     0.00000000   -0.01644835    0.00000000
     atom   14 type  2   force =     0.00000000    0.05555167    0.00248165

     Total force =     0.134028     Total SCF correction =     0.000012


     Computing stress (Cartesian axis) and pressure


     negative rho (up, down):  6.509E-04 0.000E+00
          total   stress  (Ry/bohr**3)                   (kbar)     P=      -86.28
  -0.00053029   0.00000000   0.00000000          -78.01        0.00        0.00
   0.00000000  -0.00069880   0.00000000            0.00     -102.80        0.00
   0.00000000   0.00000000  -0.00053055            0.00        0.00      -78.05


     BFGS Geometry Optimization

     number of scf cycles    =   1
     number of bfgs steps    =   0

     enthalpy new            =   -1260.5107872385 Ry

     new trust radius        =       0.1285318188 bohr
     new conv_thr            =            1.0E-10 Ry

     new unit-cell volume =   1294.58330 a.u.^3 (   191.83745 Ang^3 )
     density =      3.14870 g/cm^3

CELL_PARAMETERS (angstrom)
   3.570684532   0.000000000   0.000000000
   0.000000000   4.713484635   0.000000000
   0.000000000   0.000000000  11.398292945

ATOMIC_POSITIONS (crystal)
V             0.0000000000        0.3845652358        0.6491172219
V             0.5000000006        0.6154347654        0.8508827799
V             0.5000000006        0.6154347654        0.1491172213
V             0.0000000000        0.3845652358        0.3508827793
O             0.5000000006        0.4875838587        0.6820816869
O             0.0000000000        0.5124161424        0.8179183149
O             0.0000000000        0.5124161424        0.1820816863
O             0.5000000006        0.4875838587        0.3179183143
O             0.0000000000        0.0589947633        0.3548623155
O             0.5000000006        0.9410052378        0.1451376851
O             0.5000000006        0.9410052378        0.8548623161
O             0.5000000006        0.5030843762        0.0000000000
O             0.0000000000        0.4969156250        0.5000000006
O             0.0000000000        0.0589947633        0.6451376857



     Writing output data file ./v2o5.save/
     NEW-OLD atomic charge density approx. for the potential

     negative rho (up, down):  1.313E-03 0.000E+00
     extrapolated charge  106.92436, renormalised to  112.00000

     total cpu time spent up to now is       60.8 secs

     Self-consistent Calculation

     iteration #  1     ecut=    65.00 Ry     beta= 0.20
     Davidson diagonalization with overlap
     c_bands:  3 eigenvalues not converged
     c_bands:  3 eigenvalues not converged
     ethr =  1.00E-06,  avg # of iterations = 17.0

     negative rho (up, down):  8.882E-04 0.000E+00

     total cpu time spent up to now is       65.0 secs

     total energy              =   -1253.64366923 Ry
     Harris-Foulkes estimate   =   -1286.13277743 Ry
     estimated scf accuracy    <      32.65491224 Ry

     iteration #  2     ecut=    65.00 Ry     beta= 0.20
     Davidson diagonalization with overlap
     ethr =  1.00E-02,  avg # of iterations =  5.0

     negative rho (up, down):  4.412E-04 0.000E+00

     total cpu time spent up to now is       66.7 secs

     total energy              =   -1260.79128693 Ry
     Harris-Foulkes estimate   =   -1261.21415065 Ry
     estimated scf accuracy    <       4.09580117 Ry

     iteration #  3     ecut=    65.00 Ry     beta= 0.20
     Davidson diagonalization with overlap
     ethr =  3.66E-03,  avg # of iterations =  1.2

     negative rho (up, down):  1.423E-04 0.000E+00

     total cpu time spent up to now is       67.8 secs

     total energy              =   -1260.09250151 Ry
     Harris-Foulkes estimate   =   -1260.85215093 Ry
     estimated scf accuracy    <       2.78193309 Ry

     iteration #  4     ecut=    65.00 Ry     beta= 0.20
     Davidson diagonalization with overlap
     ethr =  2.48E-03,  avg # of iterations =  2.8

     negative rho (up, down):  1.414E-04 0.000E+00

     total cpu time spent up to now is       69.0 secs

     total energy              =   -1260.35776564 Ry
     Harris-Foulkes estimate   =   -1260.35670772 Ry
     estimated scf accuracy    <       0.14244654 Ry

     iteration #  5     ecut=    65.00 Ry     beta= 0.20
     Davidson diagonalization with overlap
     ethr =  1.27E-04,  avg # of iterations =  4.8

     negative rho (up, down):  1.739E-04 0.000E+00

     total cpu time spent up to now is       70.9 secs

     total energy              =   -1260.51542920 Ry
     Harris-Foulkes estimate   =   -1260.53040583 Ry
     estimated scf accuracy    <       0.06100567 Ry

     iteration #  6     ecut=    65.00 Ry     beta= 0.20
     Davidson diagonalization with overlap
     ethr =  5.45E-05,  avg # of iterations =  1.2

     negative rho (up, down):  1.859E-04 0.000E+00

     total cpu time spent up to now is       72.1 secs

     total energy              =   -1260.52408410 Ry
     Harris-Foulkes estimate   =   -1260.52882693 Ry
     estimated scf accuracy    <       0.05734268 Ry

     iteration #  7     ecut=    65.00 Ry     beta= 0.20
     Davidson diagonalization with overlap
     ethr =  5.12E-05,  avg # of iterations =  4.8

     negative rho (up, down):  2.154E-04 0.000E+00

     total cpu time spent up to now is       73.6 secs

     total energy              =   -1260.51613043 Ry
     Harris-Foulkes estimate   =   -1260.53447549 Ry
     estimated scf accuracy    <       0.11526760 Ry

     iteration #  8     ecut=    65.00 Ry     beta= 0.20
     Davidson diagonalization with overlap
     ethr =  5.12E-05,  avg # of iterations =  1.0

     negative rho (up, down):  2.296E-04 0.000E+00

     total cpu time spent up to now is       74.7 secs

     total energy              =   -1260.51940417 Ry
     Harris-Foulkes estimate   =   -1260.51882063 Ry
     estimated scf accuracy    <       0.05192002 Ry

     iteration #  9     ecut=    65.00 Ry     beta= 0.20
     Davidson diagonalization with overlap
     ethr =  4.64E-05,  avg # of iterations =  1.5

     negative rho (up, down):  2.262E-04 0.000E+00

     total cpu time spent up to now is       75.8 secs

     total energy              =   -1260.51920290 Ry
     Harris-Foulkes estimate   =   -1260.52087319 Ry
     estimated scf accuracy    <       0.06055048 Ry

     iteration # 10     ecut=    65.00 Ry     beta= 0.20
     Davidson diagonalization with overlap
     ethr =  4.64E-05,  avg # of iterations =  1.0

     negative rho (up, down):  2.286E-04 0.000E+00

     total cpu time spent up to now is       76.9 secs

     total energy              =   -1260.51589081 Ry
     Harris-Foulkes estimate   =   -1260.51952515 Ry
     estimated scf accuracy    <       0.05044730 Ry

     iteration # 11     ecut=    65.00 Ry     beta= 0.20
     Davidson diagonalization with overlap
     ethr =  4.50E-05,  avg # of iterations =  1.0

     negative rho (up, down):  2.204E-04 0.000E+00

     total cpu time spent up to now is       78.0 secs

     total energy              =   -1260.51033548 Ry
     Harris-Foulkes estimate   =   -1260.51658706 Ry
     estimated scf accuracy    <       0.02922860 Ry

     iteration # 12     ecut=    65.00 Ry     beta= 0.20
     Davidson diagonalization with overlap
     ethr =  2.61E-05,  avg # of iterations =  3.0

     negative rho (up, down):  2.214E-04 0.000E+00

     total cpu time spent up to now is       79.2 secs

     total energy              =   -1260.51283819 Ry
     Harris-Foulkes estimate   =   -1260.51274910 Ry
     estimated scf accuracy    <       0.00227107 Ry

     iteration # 13     ecut=    65.00 Ry     beta= 0.20
     Davidson diagonalization with overlap
     ethr =  2.03E-06,  avg # of iterations =  5.8

     negative rho (up, down):  2.154E-04 0.000E+00

     total cpu time spent up to now is       81.0 secs

     total energy              =   -1260.51446018 Ry
     Harris-Foulkes estimate   =   -1260.51434861 Ry
     estimated scf accuracy    <       0.00029807 Ry

     iteration # 14     ecut=    65.00 Ry     beta= 0.20
     Davidson diagonalization with overlap
     ethr =  2.66E-07,  avg # of iterations =  6.0

     negative rho (up, down):  2.191E-04 0.000E+00

     total cpu time spent up to now is       82.7 secs

     total energy              =   -1260.51438220 Ry
     Harris-Foulkes estimate   =   -1260.51457017 Ry
     estimated scf accuracy    <       0.00107558 Ry

     iteration # 15     ecut=    65.00 Ry     beta= 0.20
     Davidson diagonalization with overlap
     ethr =  2.66E-07,  avg # of iterations =  2.5

     negative rho (up, down):  2.113E-04 0.000E+00

     total cpu time spent up to now is       83.9 secs

     total energy              =   -1260.51452941 Ry
     Harris-Foulkes estimate   =   -1260.51441168 Ry
     estimated scf accuracy    <       0.00052103 Ry

     iteration # 16     ecut=    65.00 Ry     beta= 0.20
     Davidson diagonalization with overlap
     ethr =  2.66E-07,  avg # of iterations =  4.8

     negative rho (up, down):  2.092E-04 0.000E+00

     total cpu time spent up to now is       85.3 secs

     total energy              =   -1260.51442372 Ry
     Harris-Foulkes estimate   =   -1260.51461964 Ry
     estimated scf accuracy    <       0.00172412 Ry

     iteration # 17     ecut=    65.00 Ry     beta= 0.20
     Davidson diagonalization with overlap
     ethr =  2.66E-07,  avg # of iterations =  1.0

     negative rho (up, down):  2.076E-04 0.000E+00

     total cpu time spent up to now is       86.4 secs

     total energy              =   -1260.51439713 Ry
     Harris-Foulkes estimate   =   -1260.51444649 Ry
     estimated scf accuracy    <       0.00087847 Ry

     iteration # 18     ecut=    65.00 Ry     beta= 0.20
     Davidson diagonalization with overlap
     ethr =  2.66E-07,  avg # of iterations =  2.8

     negative rho (up, down):  2.032E-04 0.000E+00

     total cpu time spent up to now is       87.7 secs

     total energy              =   -1260.51435839 Ry
     Harris-Foulkes estimate   =   -1260.51441528 Ry
     estimated scf accuracy    <       0.00048720 Ry

     iteration # 19     ecut=    65.00 Ry     beta= 0.20
     Davidson diagonalization with overlap
     ethr =  2.66E-07,  avg # of iterations =  3.2

     negative rho (up, down):  2.016E-04 0.000E+00

     total cpu time spent up to now is       88.9 secs

     total energy              =   -1260.51438527 Ry
     Harris-Foulkes estimate   =   -1260.51437361 Ry
     estimated scf accuracy    <       0.00021371 Ry

     iteration # 20     ecut=    65.00 Ry     beta= 0.20
     Davidson diagonalization with overlap
     ethr =  1.91E-07,  avg # of iterations =  1.8

     negative rho (up, down):  2.014E-04 0.000E+00

     total cpu time spent up to now is       90.0 secs

     total energy              =   -1260.51438155 Ry
     Harris-Foulkes estimate   =   -1260.51439099 Ry
     estimated scf accuracy    <       0.00023360 Ry

     iteration # 21     ecut=    65.00 Ry     beta= 0.20
     Davidson diagonalization with overlap
     ethr =  1.91E-07,  avg # of iterations =  1.8

     negative rho (up, down):  1.983E-04 0.000E+00

     total cpu time spent up to now is       91.2 secs

     total energy              =   -1260.51433432 Ry
     Harris-Foulkes estimate   =   -1260.51438571 Ry
     estimated scf accuracy    <       0.00016361 Ry

     iteration # 22     ecut=    65.00 Ry     beta= 0.20
     Davidson diagonalization with overlap
     ethr =  1.46E-07,  avg # of iterations =  4.8

     negative rho (up, down):  2.004E-04 0.000E+00

     total cpu time spent up to now is       92.8 secs

     total energy              =   -1260.51437830 Ry
     Harris-Foulkes estimate   =   -1260.51439718 Ry
     estimated scf accuracy    <       0.00007919 Ry

     iteration # 23     ecut=    65.00 Ry     beta= 0.20
     Davidson diagonalization with overlap
     ethr =  7.07E-08,  avg # of iterations =  1.0

     negative rho (up, down):  2.014E-04 0.000E+00

     total cpu time spent up to now is       93.9 secs

     total energy              =   -1260.51438034 Ry
     Harris-Foulkes estimate   =   -1260.51438311 Ry
     estimated scf accuracy    <       0.00001219 Ry

     iteration # 24     ecut=    65.00 Ry     beta= 0.20
     Davidson diagonalization with overlap
     ethr =  1.09E-08,  avg # of iterations =  4.0

     negative rho (up, down):  1.998E-04 0.000E+00

     total cpu time spent up to now is       95.5 secs

     total energy              =   -1260.51438599 Ry
     Harris-Foulkes estimate   =   -1260.51438857 Ry
     estimated scf accuracy    <       0.00000821 Ry

     iteration # 25     ecut=    65.00 Ry     beta= 0.20
     Davidson diagonalization with overlap
     ethr =  7.33E-09,  avg # of iterations =  1.0

     negative rho (up, down):  1.998E-04 0.000E+00

     total cpu time spent up to now is       96.6 secs

     total energy              =   -1260.51438706 Ry
     Harris-Foulkes estimate   =   -1260.51438681 Ry
     estimated scf accuracy    <       0.00000035 Ry

     iteration # 26     ecut=    65.00 Ry     beta= 0.20
     Davidson diagonalization with overlap
     ethr =  3.13E-10,  avg # of iterations =  5.0

     negative rho (up, down):  1.998E-04 0.000E+00

     total cpu time spent up to now is       98.6 secs

     total energy              =   -1260.51438769 Ry
     Harris-Foulkes estimate   =   -1260.51438759 Ry
     estimated scf accuracy    <       0.00000016 Ry

     iteration # 27     ecut=    65.00 Ry     beta= 0.20
     Davidson diagonalization with overlap
     ethr =  1.45E-10,  avg # of iterations =  4.5

     negative rho (up, down):  1.999E-04 0.000E+00

     total cpu time spent up to now is      100.0 secs

     total energy              =   -1260.51438771 Ry
     Harris-Foulkes estimate   =   -1260.51438771 Ry
     estimated scf accuracy    <       0.00000032 Ry

     iteration # 28     ecut=    65.00 Ry     beta= 0.20
     Davidson diagonalization with overlap
     ethr =  1.45E-10,  avg # of iterations =  2.0

     negative rho (up, down):  2.001E-04 0.000E+00

     total cpu time spent up to now is      101.1 secs

     total energy              =   -1260.51438774 Ry
     Harris-Foulkes estimate   =   -1260.51438773 Ry
     estimated scf accuracy    <       0.00000012 Ry

     iteration # 29     ecut=    65.00 Ry     beta= 0.20
     Davidson diagonalization with overlap
     ethr =  1.06E-10,  avg # of iterations =  2.0

     negative rho (up, down):  2.001E-04 0.000E+00

     total cpu time spent up to now is      102.3 secs

     total energy              =   -1260.51438777 Ry
     Harris-Foulkes estimate   =   -1260.51438774 Ry
     estimated scf accuracy    <       0.00000004 Ry

     iteration # 30     ecut=    65.00 Ry     beta= 0.20
     Davidson diagonalization with overlap
     ethr =  3.47E-11,  avg # of iterations =  4.0

     negative rho (up, down):  2.001E-04 0.000E+00

     total cpu time spent up to now is      103.7 secs

     total energy              =   -1260.51438779 Ry
     Harris-Foulkes estimate   =   -1260.51438777 Ry
     estimated scf accuracy    <       0.00000002 Ry

     iteration # 31     ecut=    65.00 Ry     beta= 0.20
     Davidson diagonalization with overlap
     ethr =  2.20E-11,  avg # of iterations =  3.5

     negative rho (up, down):  2.000E-04 0.000E+00

     total cpu time spent up to now is      105.0 secs

     total energy              =   -1260.51438780 Ry
     Harris-Foulkes estimate   =   -1260.51438780 Ry
     estimated scf accuracy    <       0.00000007 Ry

     iteration # 32     ecut=    65.00 Ry     beta= 0.20
     Davidson diagonalization with overlap
     ethr =  2.20E-11,  avg # of iterations =  3.0

     negative rho (up, down):  2.000E-04 0.000E+00

     total cpu time spent up to now is      106.3 secs

     total energy              =   -1260.51438781 Ry
     Harris-Foulkes estimate   =   -1260.51438780 Ry
     estimated scf accuracy    <       0.00000005 Ry

     iteration # 33     ecut=    65.00 Ry     beta= 0.20
     Davidson diagonalization with overlap
     ethr =  2.20E-11,  avg # of iterations =  1.0

     negative rho (up, down):  2.000E-04 0.000E+00

     total cpu time spent up to now is      107.3 secs

     total energy              =   -1260.51438782 Ry
     Harris-Foulkes estimate   =   -1260.51438781 Ry
     estimated scf accuracy    <       0.00000005 Ry

     iteration # 34     ecut=    65.00 Ry     beta= 0.20
     Davidson diagonalization with overlap
     ethr =  2.20E-11,  avg # of iterations =  1.8

     negative rho (up, down):  2.000E-04 0.000E+00

     total cpu time spent up to now is      108.5 secs

     total energy              =   -1260.51438782 Ry
     Harris-Foulkes estimate   =   -1260.51438782 Ry
     estimated scf accuracy    <       0.00000008 Ry

     iteration # 35     ecut=    65.00 Ry     beta= 0.20
     Davidson diagonalization with overlap
     ethr =  2.20E-11,  avg # of iterations =  3.2

     negative rho (up, down):  2.000E-04 0.000E+00

     total cpu time spent up to now is      109.8 secs

     total energy              =   -1260.51438782 Ry
     Harris-Foulkes estimate   =   -1260.51438782 Ry
     estimated scf accuracy    <       0.00000006 Ry

     iteration # 36     ecut=    65.00 Ry     beta= 0.20
     Davidson diagonalization with overlap
     ethr =  2.20E-11,  avg # of iterations =  1.0

     negative rho (up, down):  2.001E-04 0.000E+00

     total cpu time spent up to now is      110.9 secs

     total energy              =   -1260.51438782 Ry
     Harris-Foulkes estimate   =   -1260.51438782 Ry
     estimated scf accuracy    <       0.00000005 Ry

     iteration # 37     ecut=    65.00 Ry     beta= 0.20
     Davidson diagonalization with overlap
     ethr =  2.20E-11,  avg # of iterations =  1.0

     negative rho (up, down):  2.001E-04 0.000E+00

     total cpu time spent up to now is      112.0 secs

     total energy              =   -1260.51438782 Ry
     Harris-Foulkes estimate   =   -1260.51438782 Ry
     estimated scf accuracy    <       0.00000004 Ry

     iteration # 38     ecut=    65.00 Ry     beta= 0.20
     Davidson diagonalization with overlap
     ethr =  2.20E-11,  avg # of iterations =  1.0

     negative rho (up, down):  2.001E-04 0.000E+00

     total cpu time spent up to now is      113.1 secs

     total energy              =   -1260.51438781 Ry
     Harris-Foulkes estimate   =   -1260.51438782 Ry
     estimated scf accuracy    <       0.00000003 Ry

     iteration # 39     ecut=    65.00 Ry     beta= 0.20
     Davidson diagonalization with overlap
     ethr =  2.20E-11,  avg # of iterations =  5.0

     negative rho (up, down):  2.000E-04 0.000E+00

     total cpu time spent up to now is      114.6 secs

     total energy              =   -1260.51438782 Ry
     Harris-Foulkes estimate   =   -1260.51438782 Ry
     estimated scf accuracy    <          3.7E-09 Ry

     iteration # 40     ecut=    65.00 Ry     beta= 0.20
     Davidson diagonalization with overlap
     ethr =  3.34E-12,  avg # of iterations =  4.5

     negative rho (up, down):  2.000E-04 0.000E+00

     total cpu time spent up to now is      116.2 secs

     total energy              =   -1260.51438782 Ry
     Harris-Foulkes estimate   =   -1260.51438782 Ry
     estimated scf accuracy    <          2.4E-09 Ry

     iteration # 41     ecut=    65.00 Ry     beta= 0.20
     Davidson diagonalization with overlap
     ethr =  2.17E-12,  avg # of iterations =  4.8

     negative rho (up, down):  2.000E-04 0.000E+00

     total cpu time spent up to now is      117.6 secs

     total energy              =   -1260.51438782 Ry
     Harris-Foulkes estimate   =   -1260.51438782 Ry
     estimated scf accuracy    <          1.3E-10 Ry

     iteration # 42     ecut=    65.00 Ry     beta= 0.20
     Davidson diagonalization with overlap
     ethr =  1.16E-13,  avg # of iterations =  5.0

     negative rho (up, down):  2.000E-04 0.000E+00

     total cpu time spent up to now is      119.6 secs

     total energy              =   -1260.51438782 Ry
     Harris-Foulkes estimate   =   -1260.51438782 Ry
     estimated scf accuracy    <          6.3E-10 Ry

     iteration # 43     ecut=    65.00 Ry     beta= 0.20
     Davidson diagonalization with overlap
     ethr =  1.16E-13,  avg # of iterations =  4.5

     negative rho (up, down):  2.000E-04 0.000E+00

     total cpu time spent up to now is      121.3 secs

     total energy              =   -1260.51438782 Ry
     Harris-Foulkes estimate   =   -1260.51438782 Ry
     estimated scf accuracy    <          6.8E-10 Ry

     iteration # 44     ecut=    65.00 Ry     beta= 0.20
     Davidson diagonalization with overlap
     ethr =  1.16E-13,  avg # of iterations =  5.5

     negative rho (up, down):  2.000E-04 0.000E+00

     total cpu time spent up to now is      123.0 secs

     total energy              =   -1260.51438782 Ry
     Harris-Foulkes estimate   =   -1260.51438782 Ry
     estimated scf accuracy    <          1.5E-10 Ry

     iteration # 45     ecut=    65.00 Ry     beta= 0.20
     Davidson diagonalization with overlap
     ethr =  1.16E-13,  avg # of iterations =  1.0

     negative rho (up, down):  2.000E-04 0.000E+00

     total cpu time spent up to now is      124.1 secs

     End of self-consistent calculation

          k = 0.0000 0.0000 0.0000 ( 11963 PWs)   bands (ev):

   -60.2601 -60.2578 -60.2480 -60.2457 -34.5759 -34.5731 -34.5612 -34.5565
   -34.2882 -34.2298 -34.2050 -34.1707 -34.1680 -34.1478 -34.1315 -34.1286
   -14.1142 -13.9845 -12.9870 -12.8426 -12.7691 -12.7382 -12.4688 -12.4635
   -12.3226 -12.3037  -1.1220  -1.1107  -0.8981  -0.8868  -0.6912  -0.4194
     0.1499   0.2156   0.4150   0.6619   0.7532   0.8181   0.9053   0.9530
     1.0797   1.1902   1.2065   1.3048   1.3089   1.5707   1.6033   1.6477
     2.0164   2.2022   2.3610   2.3777   2.6169   2.6561   2.7122   2.7866
     5.2565   5.4633   6.7238   6.8967   7.0104   7.1607   7.4129   7.6797
     7.7558   8.1441   8.1596

          k = 0.0000 0.2559 0.0000 ( 11963 PWs)   bands (ev):

   -60.2601 -60.2578 -60.2480 -60.2457 -34.5762 -34.5735 -34.5628 -34.5581
   -34.2880 -34.2297 -34.2050 -34.1708 -34.1680 -34.1478 -34.1314 -34.1287
   -14.0633 -13.9414 -12.9518 -12.8333 -12.7672 -12.7172 -12.4818 -12.4704
   -12.3160 -12.2916  -1.1523  -1.1404  -0.9561  -0.9326  -0.8691  -0.6250
    -0.3922  -0.1504  -0.1252  -0.1097   0.5404   0.5680   0.6156   1.0185
     1.0439   1.2961   1.5416   1.5993   1.6728   1.7978   1.7990   1.9086
     2.3401   2.3437   2.3560   2.5554   2.6392   2.7589   2.8631   2.8762
     5.3040   5.5020   6.7502   6.8955   7.0159   7.2069   7.3886   7.5909
     7.9283   8.1467   8.1600

          k = 0.3378 0.0000 0.0000 ( 11982 PWs)   bands (ev):

   -60.2555 -60.2532 -60.2494 -60.2471 -34.5691 -34.5662 -34.5613 -34.5572
   -34.2834 -34.2539 -34.2387 -34.2264 -34.1762 -34.1681 -34.1519 -34.1434
   -13.5431 -13.3978 -12.9056 -12.7351 -12.7208 -12.6927 -12.4093 -12.3995
   -12.3742 -12.3295  -1.5802  -1.4956  -0.7618  -0.6684  -0.5839  -0.2530
    -0.1936   0.0441   0.0546   0.2812   0.2876   0.3582   0.7988   0.8657
     0.9167   1.0152   1.0238   1.1496   1.1608   1.3219   1.5599   1.5702
     1.6603   2.0464   2.4081   2.4659   2.6222   2.7627   3.0129   3.0392
     5.6628   5.8453   6.5416   6.5636   6.9472   7.2077   7.2769   7.2920
     7.6495   7.6672   7.7012

          k = 0.3378 0.2559 0.0000 ( 11965 PWs)   bands (ev):

   -60.2555 -60.2532 -60.2494 -60.2471 -34.5699 -34.5667 -34.5625 -34.5584
   -34.2833 -34.2538 -34.2385 -34.2263 -34.1763 -34.1681 -34.1520 -34.1434
   -13.4966 -13.3632 -12.8723 -12.7338 -12.7136 -12.6763 -12.4155 -12.4136
   -12.3320 -12.3173  -1.5805  -1.4981  -0.8283  -0.7734  -0.7186  -0.5564
    -0.3096  -0.2631  -0.1805  -0.0546   0.0604   0.1975   0.6304   0.6354
     0.6868   0.7861   0.8824   0.9656   1.0229   1.3415   1.7936   1.8726
     2.1808   2.3420   2.5344   2.8237   2.8309   2.9660   3.1283   3.1422
     5.6681   5.8360   6.5665   6.5879   7.0980   7.2958   7.3079   7.3372
     7.6142   7.6228   7.6520

     the Fermi energy is     4.2250 ev

!    total energy              =   -1260.51438782 Ry
     Harris-Foulkes estimate   =   -1260.51438782 Ry
     estimated scf accuracy    <          5.9E-11 Ry

     total all-electron energy =     -9087.654323 Ry

     The total energy is the sum of the following terms:

     one-electron contribution =    -639.28548696 Ry
     hartree contribution      =     359.93814218 Ry
     xc contribution           =    -153.18317507 Ry
     ewald contribution        =    -464.09364592 Ry
     one-center paw contrib.   =    -363.89022205 Ry
     smearing contrib. (-TS)   =      -0.00000000 Ry

     convergence has been achieved in  45 iterations

     negative rho (up, down):  2.000E-04 0.000E+00

     Forces acting on atoms (cartesian axes, Ry/au):

     atom    1 type  1   force =     0.00000000    0.10928763    0.01117734
     atom    2 type  1   force =     0.00000000   -0.10928763   -0.01117734
     atom    3 type  1   force =     0.00000000   -0.10928763    0.01117734
     atom    4 type  1   force =     0.00000000    0.10928763   -0.01117734
     atom    5 type  2   force =     0.00000000   -0.00303557   -0.00270263
     atom    6 type  2   force =     0.00000000    0.00303557    0.00270263
     atom    7 type  2   force =     0.00000000    0.00303557   -0.00270263
     atom    8 type  2   force =     0.00000000   -0.00303557    0.00270263
     atom    9 type  2   force =     0.00000000   -0.10307584    0.00256660
     atom   10 type  2   force =     0.00000000    0.10307584   -0.00256660
     atom   11 type  2   force =     0.00000000    0.10307584    0.00256660
     atom   12 type  2   force =     0.00000000    0.00080850    0.00000000
     atom   13 type  2   force =     0.00000000   -0.00080850    0.00000000
     atom   14 type  2   force =     0.00000000   -0.10307584   -0.00256660

     Total force =     0.301442     Total SCF correction =     0.000025


     Computing stress (Cartesian axis) and pressure


     negative rho (up, down):  2.000E-04 0.000E+00
          total   stress  (Ry/bohr**3)                   (kbar)     P=       28.02
  -0.00016767   0.00000000   0.00000000          -24.67        0.00        0.00
   0.00000000   0.00081628   0.00000000            0.00      120.08        0.00
   0.00000000   0.00000000  -0.00007710            0.00        0.00      -11.34


     number of scf cycles    =   2
     number of bfgs steps    =   1

     enthalpy old            =   -1260.5107872385 Ry
     enthalpy new            =   -1260.5143878198 Ry

     CASE: enthalpy_new < enthalpy_old

     new trust radius        =       0.0441744494 bohr
     new conv_thr            =            3.6E-11 Ry

     new unit-cell volume =   1287.14457 a.u.^3 (   190.73514 Ang^3 )
     density =      3.16689 g/cm^3

CELL_PARAMETERS (angstrom)
   3.549308946   0.000000000   0.000000000
   0.000000000   4.737638751   0.000000000
   0.000000000   0.000000000  11.342922789

ATOMIC_POSITIONS (crystal)
V             0.0000000000        0.3895118915        0.6492642196
V             0.5000000005        0.6104881095        0.8507357820
V             0.5000000005        0.6104881095        0.1492642191
V             0.0000000000        0.3895118915        0.3507357814
O             0.5000000005        0.4872140639        0.6820907991
O             0.0000000000        0.5127859372        0.8179092024
O             0.0000000000        0.5127859372        0.1820907986
O             0.5000000005        0.4872140639        0.3179092019
O             0.0000000000        0.0550932609        0.3548883304
O             0.5000000005        0.9449067401        0.1451116701
O             0.5000000005        0.9449067401        0.8548883309
O             0.5000000005        0.5036546861        0.0000000000
O             0.0000000000        0.4963453149        0.5000000005
O             0.0000000000        0.0550932609        0.6451116706



     Writing output data file ./v2o5.save/
     NEW-OLD atomic charge density approx. for the potential

     negative rho (up, down):  1.743E-04 0.000E+00
     extrapolated charge  111.35274, renormalised to  112.00000

     total cpu time spent up to now is      129.3 secs

     Self-consistent Calculation

     iteration #  1     ecut=    65.00 Ry     beta= 0.20
     Davidson diagonalization with overlap
     ethr =  1.00E-06,  avg # of iterations =  9.8

     negative rho (up, down):  2.300E-04 0.000E+00

     total cpu time spent up to now is      132.4 secs

     total energy              =   -1260.49172389 Ry
     Harris-Foulkes estimate   =   -1263.56704731 Ry
     estimated scf accuracy    <       0.11376366 Ry

     iteration #  2     ecut=    65.00 Ry     beta= 0.20
     Davidson diagonalization with overlap
     ethr =  1.02E-04,  avg # of iterations =  4.5

     negative rho (up, down):  2.787E-04 0.000E+00

     total cpu time spent up to now is      133.9 secs

     total energy              =   -1260.53345242 Ry
     Harris-Foulkes estimate   =   -1260.53718108 Ry
     estimated scf accuracy    <       0.05419956 Ry

     iteration #  3     ecut=    65.00 Ry     beta= 0.20
     Davidson diagonalization with overlap
     ethr =  4.84E-05,  avg # of iterations =  2.0

     negative rho (up, down):  4.108E-04 0.000E+00

     total cpu time spent up to now is      135.1 secs

     total energy              =   -1260.52943522 Ry
     Harris-Foulkes estimate   =   -1260.53484713 Ry
     estimated scf accuracy    <       0.03430810 Ry

     iteration #  4     ecut=    65.00 Ry     beta= 0.20
     Davidson diagonalization with overlap
     ethr =  3.06E-05,  avg # of iterations =  1.5

     negative rho (up, down):  7.016E-04 0.000E+00

     total cpu time spent up to now is      136.2 secs

     total energy              =   -1260.52891866 Ry
     Harris-Foulkes estimate   =   -1260.53131953 Ry
     estimated scf accuracy    <       0.00691577 Ry

     iteration #  5     ecut=    65.00 Ry     beta= 0.20
     Davidson diagonalization with overlap
     ethr =  6.17E-06,  avg # of iterations =  4.2

     negative rho (up, down):  7.981E-04 0.000E+00

     total cpu time spent up to now is      137.8 secs

     total energy              =   -1260.53041094 Ry
     Harris-Foulkes estimate   =   -1260.53168793 Ry
     estimated scf accuracy    <       0.00426126 Ry

     iteration #  6     ecut=    65.00 Ry     beta= 0.20
     Davidson diagonalization with overlap
     ethr =  3.80E-06,  avg # of iterations =  1.8

     negative rho (up, down):  9.399E-04 0.000E+00

     total cpu time spent up to now is      138.9 secs

     total energy              =   -1260.53061436 Ry
     Harris-Foulkes estimate   =   -1260.53101481 Ry
     estimated scf accuracy    <       0.00042524 Ry

     iteration #  7     ecut=    65.00 Ry     beta= 0.20
     Davidson diagonalization with overlap
     ethr =  3.80E-07,  avg # of iterations =  5.0

     negative rho (up, down):  8.920E-04 0.000E+00

     total cpu time spent up to now is      140.9 secs

     total energy              =   -1260.53105029 Ry
     Harris-Foulkes estimate   =   -1260.53114087 Ry
     estimated scf accuracy    <       0.00166167 Ry

     iteration #  8     ecut=    65.00 Ry     beta= 0.20
     Davidson diagonalization with overlap
     ethr =  3.80E-07,  avg # of iterations =  6.5

     negative rho (up, down):  9.321E-04 0.000E+00

     total cpu time spent up to now is      142.6 secs

     total energy              =   -1260.53143812 Ry
     Harris-Foulkes estimate   =   -1260.53138924 Ry
     estimated scf accuracy    <       0.00036148 Ry

     iteration #  9     ecut=    65.00 Ry     beta= 0.20
     Davidson diagonalization with overlap
     ethr =  3.23E-07,  avg # of iterations =  1.2

     negative rho (up, down):  9.330E-04 0.000E+00

     total cpu time spent up to now is      143.8 secs

     total energy              =   -1260.53155796 Ry
     Harris-Foulkes estimate   =   -1260.53145871 Ry
     estimated scf accuracy    <       0.00004843 Ry

     iteration # 10     ecut=    65.00 Ry     beta= 0.20
     Davidson diagonalization with overlap
     ethr =  4.32E-08,  avg # of iterations =  5.0

     negative rho (up, down):  9.361E-04 0.000E+00

     total cpu time spent up to now is      145.5 secs

     total energy              =   -1260.53164148 Ry
     Harris-Foulkes estimate   =   -1260.53158383 Ry
     estimated scf accuracy    <       0.00002524 Ry

     iteration # 11     ecut=    65.00 Ry     beta= 0.20
     Davidson diagonalization with overlap
     ethr =  2.25E-08,  avg # of iterations =  1.0

     negative rho (up, down):  9.310E-04 0.000E+00

     total cpu time spent up to now is      146.6 secs

     total energy              =   -1260.53167421 Ry
     Harris-Foulkes estimate   =   -1260.53164178 Ry
     estimated scf accuracy    <       0.00003589 Ry

     iteration # 12     ecut=    65.00 Ry     beta= 0.20
     Davidson diagonalization with overlap
     ethr =  2.25E-08,  avg # of iterations =  1.0

     negative rho (up, down):  9.369E-04 0.000E+00

     total cpu time spent up to now is      147.7 secs

     total energy              =   -1260.53169642 Ry
     Harris-Foulkes estimate   =   -1260.53167571 Ry
     estimated scf accuracy    <       0.00000976 Ry

     iteration # 13     ecut=    65.00 Ry     beta= 0.20
     Davidson diagonalization with overlap
     ethr =  8.71E-09,  avg # of iterations =  3.0

     negative rho (up, down):  9.417E-04 0.000E+00

     total cpu time spent up to now is      148.9 secs

     total energy              =   -1260.53171223 Ry
     Harris-Foulkes estimate   =   -1260.53169701 Ry
     estimated scf accuracy    <       0.00000759 Ry

     iteration # 14     ecut=    65.00 Ry     beta= 0.20
     Davidson diagonalization with overlap
     ethr =  6.78E-09,  avg # of iterations =  1.0

     negative rho (up, down):  9.432E-04 0.000E+00

     total cpu time spent up to now is      150.0 secs

     total energy              =   -1260.53172203 Ry
     Harris-Foulkes estimate   =   -1260.53171239 Ry
     estimated scf accuracy    <       0.00000972 Ry

     iteration # 15     ecut=    65.00 Ry     beta= 0.20
     Davidson diagonalization with overlap
     ethr =  6.78E-09,  avg # of iterations =  1.0

     negative rho (up, down):  9.411E-04 0.000E+00

     total cpu time spent up to now is      151.1 secs

     total energy              =   -1260.53172841 Ry
     Harris-Foulkes estimate   =   -1260.53172240 Ry
     estimated scf accuracy    <       0.00000339 Ry

     iteration # 16     ecut=    65.00 Ry     beta= 0.20
     Davidson diagonalization with overlap
     ethr =  3.03E-09,  avg # of iterations =  4.2

     negative rho (up, down):  9.421E-04 0.000E+00

     total cpu time spent up to now is      152.7 secs

     total energy              =   -1260.53173391 Ry
     Harris-Foulkes estimate   =   -1260.53172958 Ry
     estimated scf accuracy    <       0.00000177 Ry

     iteration # 17     ecut=    65.00 Ry     beta= 0.20
     Davidson diagonalization with overlap
     ethr =  1.58E-09,  avg # of iterations =  1.0

     negative rho (up, down):  9.432E-04 0.000E+00

     total cpu time spent up to now is      153.7 secs

     total energy              =   -1260.53173668 Ry
     Harris-Foulkes estimate   =   -1260.53173395 Ry
     estimated scf accuracy    <       0.00000100 Ry

     iteration # 18     ecut=    65.00 Ry     beta= 0.20
     Davidson diagonalization with overlap
     ethr =  8.92E-10,  avg # of iterations =  4.0

     negative rho (up, down):  9.439E-04 0.000E+00

     total cpu time spent up to now is      155.1 secs

     total energy              =   -1260.53173865 Ry
     Harris-Foulkes estimate   =   -1260.53173680 Ry
     estimated scf accuracy    <       0.00000004 Ry

     iteration # 19     ecut=    65.00 Ry     beta= 0.20
     Davidson diagonalization with overlap
     ethr =  3.13E-11,  avg # of iterations =  5.0

     negative rho (up, down):  9.444E-04 0.000E+00

     total cpu time spent up to now is      157.4 secs

     total energy              =   -1260.53173985 Ry
     Harris-Foulkes estimate   =   -1260.53173872 Ry
     estimated scf accuracy    <       0.00000011 Ry

     iteration # 20     ecut=    65.00 Ry     beta= 0.20
     Davidson diagonalization with overlap
     ethr =  3.13E-11,  avg # of iterations =  5.5

     negative rho (up, down):  9.439E-04 0.000E+00

     total cpu time spent up to now is      159.1 secs

     total energy              =   -1260.53174061 Ry
     Harris-Foulkes estimate   =   -1260.53173987 Ry
     estimated scf accuracy    <       0.00000002 Ry

     iteration # 21     ecut=    65.00 Ry     beta= 0.20
     Davidson diagonalization with overlap
     ethr =  1.89E-11,  avg # of iterations =  4.5

     negative rho (up, down):  9.442E-04 0.000E+00

     total cpu time spent up to now is      160.9 secs

     total energy              =   -1260.53174110 Ry
     Harris-Foulkes estimate   =   -1260.53174063 Ry
     estimated scf accuracy    <       0.00000011 Ry

     iteration # 22     ecut=    65.00 Ry     beta= 0.20
     Davidson diagonalization with overlap
     ethr =  1.89E-11,  avg # of iterations =  2.5

     negative rho (up, down):  9.445E-04 0.000E+00

     total cpu time spent up to now is      162.1 secs

     total energy              =   -1260.53174141 Ry
     Harris-Foulkes estimate   =   -1260.53174110 Ry
     estimated scf accuracy    <       0.00000002 Ry

     iteration # 23     ecut=    65.00 Ry     beta= 0.20
     Davidson diagonalization with overlap
     ethr =  1.89E-11,  avg # of iterations =  4.5

     negative rho (up, down):  9.447E-04 0.000E+00

     total cpu time spent up to now is      163.7 secs

     total energy              =   -1260.53174162 Ry
     Harris-Foulkes estimate   =   -1260.53174142 Ry
     estimated scf accuracy    <          9.3E-09 Ry

     iteration # 24     ecut=    65.00 Ry     beta= 0.20
     Davidson diagonalization with overlap
     ethr =  8.27E-12,  avg # of iterations =  1.0

     negative rho (up, down):  9.450E-04 0.000E+00

     total cpu time spent up to now is      164.8 secs

     total energy              =   -1260.53174175 Ry
     Harris-Foulkes estimate   =   -1260.53174162 Ry
     estimated scf accuracy    <          4.6E-09 Ry

     iteration # 25     ecut=    65.00 Ry     beta= 0.20
     Davidson diagonalization with overlap
     ethr =  4.07E-12,  avg # of iterations =  3.8

     negative rho (up, down):  9.452E-04 0.000E+00

     total cpu time spent up to now is      166.1 secs

     total energy              =   -1260.53174183 Ry
     Harris-Foulkes estimate   =   -1260.53174175 Ry
     estimated scf accuracy    <          1.8E-09 Ry

     iteration # 26     ecut=    65.00 Ry     beta= 0.20
     Davidson diagonalization with overlap
     ethr =  1.62E-12,  avg # of iterations =  2.0

     negative rho (up, down):  9.453E-04 0.000E+00

     total cpu time spent up to now is      167.3 secs

     total energy              =   -1260.53174188 Ry
     Harris-Foulkes estimate   =   -1260.53174183 Ry
     estimated scf accuracy    <          3.4E-09 Ry

     iteration # 27     ecut=    65.00 Ry     beta= 0.20
     Davidson diagonalization with overlap
     ethr =  1.62E-12,  avg # of iterations =  1.0

     negative rho (up, down):  9.454E-04 0.000E+00

     total cpu time spent up to now is      168.4 secs

     total energy              =   -1260.53174191 Ry
     Harris-Foulkes estimate   =   -1260.53174188 Ry
     estimated scf accuracy    <          2.1E-09 Ry

     iteration # 28     ecut=    65.00 Ry     beta= 0.20
     Davidson diagonalization with overlap
     ethr =  1.62E-12,  avg # of iterations =  1.2

     negative rho (up, down):  9.454E-04 0.000E+00

     total cpu time spent up to now is      169.5 secs

     total energy              =   -1260.53174194 Ry
     Harris-Foulkes estimate   =   -1260.53174191 Ry
     estimated scf accuracy    <          5.4E-10 Ry

     iteration # 29     ecut=    65.00 Ry     beta= 0.20
     Davidson diagonalization with overlap
     ethr =  4.82E-13,  avg # of iterations =  4.8

     negative rho (up, down):  9.458E-04 0.000E+00

     total cpu time spent up to now is      171.1 secs

     End of self-consistent calculation

          k = 0.0000 0.0000 0.0000 ( 11963 PWs)   bands (ev):

   -60.2696 -60.2672 -60.2554 -60.2530 -34.4130 -34.4093 -34.4012 -34.3925
   -34.3511 -34.2900 -34.2545 -34.2295 -34.2265 -34.1972 -34.1848 -34.1818
   -14.2692 -14.1386 -13.0739 -12.9989 -12.9274 -12.8249 -12.2909 -12.2710
   -12.1116 -12.1040  -1.2472  -1.2334  -1.0848  -1.0522  -0.7860  -0.3952
     0.1680   0.4426   0.5490   0.5817   0.9596   1.0453   1.2078   1.2102
     1.3510   1.3517   1.3637   1.4769   1.6405   1.7322   1.7783   1.7947
     2.0265   2.1087   2.4988   2.4995   2.5303   2.6457   2.7774   2.8706
     5.2172   5.4161   6.7101   6.8447   6.9449   7.0817   7.2562   7.5646
     7.7008   7.9689   7.9717

          k = 0.0000 0.2546 0.0000 ( 11963 PWs)   bands (ev):

   -60.2696 -60.2672 -60.2555 -60.2530 -34.4135 -34.4097 -34.4026 -34.3940
   -34.3508 -34.2899 -34.2544 -34.2295 -34.2265 -34.1972 -34.1848 -34.1819
   -14.2308 -14.1064 -13.0506 -12.9921 -12.9231 -12.8147 -12.2987 -12.2683
   -12.1048 -12.0665  -1.2679  -1.2538  -1.1033  -1.0755  -0.9212  -0.5151
    -0.3885  -0.0761   0.0317   0.0737   0.7874   0.7958   0.8814   1.2807
     1.3044   1.3465   1.4942   1.6660   1.8334   1.9521   2.0378   2.2285
     2.2783   2.4470   2.4606   2.4889   2.5465   2.7996   2.8819   2.9893
     5.2699   5.4624   6.7436   6.8516   6.9533   7.0961   7.2341   7.6335
     7.7393   7.9717   7.9734

          k = 0.3398 0.0000 0.0000 ( 11982 PWs)   bands (ev):

   -60.2643 -60.2619 -60.2572 -60.2548 -34.4055 -34.4028 -34.3978 -34.3917
   -34.3487 -34.3183 -34.3006 -34.2907 -34.2288 -34.2227 -34.2056 -34.1939
   -13.6690 -13.5230 -13.0054 -12.8733 -12.8285 -12.7778 -12.2180 -12.2025
   -12.1395 -12.1379  -1.7683  -1.6812  -0.9016  -0.8024  -0.6744  -0.3354
    -0.2427   0.0148   0.1023   0.3779   0.4208   0.5630   0.9054   1.0168
     1.0857   1.2606   1.2867   1.3659   1.4477   1.5546   1.6598   1.6873
     1.8418   2.1104   2.4591   2.6456   2.6871   2.8881   2.9388   2.9856
     5.6213   5.8170   6.5070   6.5319   6.8356   7.0519   7.1171   7.1648
     7.4654   7.5072   7.6334

          k = 0.3398 0.2546 0.0000 ( 11965 PWs)   bands (ev):

   -60.2643 -60.2619 -60.2572 -60.2548 -34.4062 -34.4033 -34.3989 -34.3929
   -34.3485 -34.3183 -34.3004 -34.2906 -34.2289 -34.2227 -34.2057 -34.1939
   -13.6361 -13.4990 -12.9887 -12.8720 -12.8188 -12.7694 -12.2198 -12.1922
   -12.1214 -12.0889  -1.7697  -1.6832  -0.9357  -0.8420  -0.7696  -0.4596
    -0.3889  -0.2875  -0.1327   0.0877   0.2158   0.2208   0.6594   0.7523
     0.7974   0.9718   1.1368   1.1591   1.2725   1.6007   1.8669   2.1618
     2.2792   2.3977   2.6771   2.8683   2.8948   3.0603   3.0652   3.1262
     5.6258   5.8025   6.5400   6.5572   6.9904   7.1472   7.1691   7.1870
     7.4768   7.5112   7.5398

     the Fermi energy is     4.1939 ev

!    total energy              =   -1260.53174197 Ry
     Harris-Foulkes estimate   =   -1260.53174194 Ry
     estimated scf accuracy    <          1.4E-11 Ry

     total all-electron energy =     -9087.671677 Ry

     The total energy is the sum of the following terms:

     one-electron contribution =    -635.30075442 Ry
     hartree contribution      =     358.02894611 Ry
     xc contribution           =    -153.04629399 Ry
     ewald contribution        =    -466.32485364 Ry
     one-center paw contrib.   =    -363.88878603 Ry
     smearing contrib. (-TS)   =      -0.00000000 Ry

     convergence has been achieved in  29 iterations

     negative rho (up, down):  9.458E-04 0.000E+00

     Forces acting on atoms (cartesian axes, Ry/au):

     atom    1 type  1   force =     0.00000000   -0.01330752    0.00580438
     atom    2 type  1   force =     0.00000000    0.01330752   -0.00580438
     atom    3 type  1   force =     0.00000000    0.01330752    0.00580438
     atom    4 type  1   force =     0.00000000   -0.01330752   -0.00580438
     atom    5 type  2   force =     0.00000000    0.00141022   -0.00443839
     atom    6 type  2   force =     0.00000000   -0.00141022    0.00443839
     atom    7 type  2   force =     0.00000000   -0.00141022   -0.00443839
     atom    8 type  2   force =     0.00000000    0.00141022    0.00443839
     atom    9 type  2   force =     0.00000000    0.00364527   -0.00038725
     atom   10 type  2   force =     0.00000000   -0.00364527    0.00038725
     atom   11 type  2   force =     0.00000000   -0.00364527   -0.00038725
     atom   12 type  2   force =     0.00000000   -0.00805405    0.00000000
     atom   13 type  2   force =     0.00000000    0.00805405    0.00000000
     atom   14 type  2   force =     0.00000000    0.00364527    0.00038725

     Total force =     0.033367     Total SCF correction =     0.000008


     Computing stress (Cartesian axis) and pressure


     negative rho (up, down):  9.458E-04 0.000E+00
          total   stress  (Ry/bohr**3)                   (kbar)     P=        0.48
   0.00002756   0.00000000   0.00000000            4.05        0.00        0.00
   0.00000000  -0.00013031   0.00000000            0.00      -19.17        0.00
   0.00000000   0.00000000   0.00011251            0.00        0.00       16.55


     number of scf cycles    =   3
     number of bfgs steps    =   2

     enthalpy old            =   -1260.5143878198 Ry
     enthalpy new            =   -1260.5317419737 Ry

     CASE: enthalpy_new < enthalpy_old

     new trust radius        =       0.0224086024 bohr
     new conv_thr            =            1.3E-11 Ry

     new unit-cell volume =   1291.00830 a.u.^3 (   191.30769 Ang^3 )
     density =      3.15741 g/cm^3

CELL_PARAMETERS (angstrom)
   3.553467746   0.000000000   0.000000000
   0.000000000   4.731522276   0.000000000
   0.000000000   0.000000000  11.378346666

ATOMIC_POSITIONS (crystal)
V             0.0000000000        0.3887846325        0.6495344193
V             0.5000000005        0.6112153685        0.8504655821
V             0.5000000005        0.6112153685        0.1495344188
V             0.0000000000        0.3887846325        0.3504655817
O             0.5000000005        0.4873772234        0.6818950056
O             0.0000000000        0.5126227775        0.8181049958
O             0.0000000000        0.5126227775        0.1818950051
O             0.5000000005        0.4873772234        0.3181049953
O             0.0000000000        0.0547728780        0.3548822946
O             0.5000000005        0.9452271230        0.1451177059
O             0.5000000005        0.9452271230        0.8548822951
O             0.5000000005        0.5027767520        0.0000000000
O             0.0000000000        0.4972232490        0.5000000005
O             0.0000000000        0.0547728780        0.6451177063



     Writing output data file ./v2o5.save/
     NEW-OLD atomic charge density approx. for the potential

     negative rho (up, down):  9.295E-04 0.000E+00
     extrapolated charge  112.33518, renormalised to  112.00000

     total cpu time spent up to now is      176.3 secs

     Self-consistent Calculation

     iteration #  1     ecut=    65.00 Ry     beta= 0.20
     Davidson diagonalization with overlap
     ethr =  1.00E-06,  avg # of iterations =  5.0

     negative rho (up, down):  9.185E-04 0.000E+00

     total cpu time spent up to now is      178.5 secs

     total energy              =   -1260.52137930 Ry
     Harris-Foulkes estimate   =   -1258.98032313 Ry
     estimated scf accuracy    <       0.03790933 Ry

     iteration #  2     ecut=    65.00 Ry     beta= 0.20
     Davidson diagonalization with overlap
     ethr =  3.38E-05,  avg # of iterations =  4.0

     negative rho (up, down):  9.354E-04 0.000E+00

     total cpu time spent up to now is      180.0 secs

     total energy              =   -1260.53179801 Ry
     Harris-Foulkes estimate   =   -1260.53234890 Ry
     estimated scf accuracy    <       0.00564523 Ry

     iteration #  3     ecut=    65.00 Ry     beta= 0.20
     Davidson diagonalization with overlap
     ethr =  5.04E-06,  avg # of iterations =  4.8

     negative rho (up, down):  9.503E-04 0.000E+00

     total cpu time spent up to now is      181.5 secs

     total energy              =   -1260.53236259 Ry
     Harris-Foulkes estimate   =   -1260.53283701 Ry
     estimated scf accuracy    <       0.00364289 Ry

     iteration #  4     ecut=    65.00 Ry     beta= 0.20
     Davidson diagonalization with overlap
     ethr =  3.25E-06,  avg # of iterations =  1.2

     negative rho (up, down):  9.667E-04 0.000E+00

     total cpu time spent up to now is      182.6 secs

     total energy              =   -1260.53222513 Ry
     Harris-Foulkes estimate   =   -1260.53249723 Ry
     estimated scf accuracy    <       0.00112724 Ry

     iteration #  5     ecut=    65.00 Ry     beta= 0.20
     Davidson diagonalization with overlap
     ethr =  1.01E-06,  avg # of iterations =  5.0

     negative rho (up, down):  9.663E-04 0.000E+00

     total cpu time spent up to now is      184.1 secs

     total energy              =   -1260.53244275 Ry
     Harris-Foulkes estimate   =   -1260.53247320 Ry
     estimated scf accuracy    <       0.00014404 Ry

     iteration #  6     ecut=    65.00 Ry     beta= 0.20
     Davidson diagonalization with overlap
     ethr =  1.29E-07,  avg # of iterations =  5.0

     negative rho (up, down):  9.617E-04 0.000E+00

     total cpu time spent up to now is      185.7 secs

     total energy              =   -1260.53247153 Ry
     Harris-Foulkes estimate   =   -1260.53248992 Ry
     estimated scf accuracy    <       0.00004770 Ry

     iteration #  7     ecut=    65.00 Ry     beta= 0.20
     Davidson diagonalization with overlap
     ethr =  4.26E-08,  avg # of iterations =  4.5

     negative rho (up, down):  9.649E-04 0.000E+00

     total cpu time spent up to now is      187.3 secs

     total energy              =   -1260.53244166 Ry
     Harris-Foulkes estimate   =   -1260.53248759 Ry
     estimated scf accuracy    <       0.00010056 Ry

     iteration #  8     ecut=    65.00 Ry     beta= 0.20
     Davidson diagonalization with overlap
     ethr =  4.26E-08,  avg # of iterations =  4.0

     negative rho (up, down):  9.587E-04 0.000E+00

     total cpu time spent up to now is      188.9 secs

     total energy              =   -1260.53247336 Ry
     Harris-Foulkes estimate   =   -1260.53247008 Ry
     estimated scf accuracy    <       0.00004092 Ry

     iteration #  9     ecut=    65.00 Ry     beta= 0.20
     Davidson diagonalization with overlap
     ethr =  3.65E-08,  avg # of iterations =  1.0

     negative rho (up, down):  9.540E-04 0.000E+00

     total cpu time spent up to now is      190.0 secs

     total energy              =   -1260.53247362 Ry
     Harris-Foulkes estimate   =   -1260.53247559 Ry
     estimated scf accuracy    <       0.00001153 Ry

     iteration # 10     ecut=    65.00 Ry     beta= 0.20
     Davidson diagonalization with overlap
     ethr =  1.03E-08,  avg # of iterations =  4.2

     negative rho (up, down):  9.550E-04 0.000E+00

     total cpu time spent up to now is      191.4 secs

     total energy              =   -1260.53247682 Ry
     Harris-Foulkes estimate   =   -1260.53247584 Ry
     estimated scf accuracy    <       0.00000153 Ry

     iteration # 11     ecut=    65.00 Ry     beta= 0.20
     Davidson diagonalization with overlap
     ethr =  1.36E-09,  avg # of iterations =  5.5

     negative rho (up, down):  9.569E-04 0.000E+00

     total cpu time spent up to now is      192.9 secs

     total energy              =   -1260.53247748 Ry
     Harris-Foulkes estimate   =   -1260.53247709 Ry
     estimated scf accuracy    <       0.00000129 Ry

     iteration # 12     ecut=    65.00 Ry     beta= 0.20
     Davidson diagonalization with overlap
     ethr =  1.15E-09,  avg # of iterations =  2.0

     negative rho (up, down):  9.631E-04 0.000E+00

     total cpu time spent up to now is      194.1 secs

     total energy              =   -1260.53247845 Ry
     Harris-Foulkes estimate   =   -1260.53247754 Ry
     estimated scf accuracy    <       0.00000094 Ry

     iteration # 13     ecut=    65.00 Ry     beta= 0.20
     Davidson diagonalization with overlap
     ethr =  8.39E-10,  avg # of iterations =  5.0

     negative rho (up, down):  9.615E-04 0.000E+00

     total cpu time spent up to now is      195.8 secs

     total energy              =   -1260.53247878 Ry
     Harris-Foulkes estimate   =   -1260.53247889 Ry
     estimated scf accuracy    <       0.00000334 Ry

     iteration # 14     ecut=    65.00 Ry     beta= 0.20
     Davidson diagonalization with overlap
     ethr =  8.39E-10,  avg # of iterations =  1.2

     negative rho (up, down):  9.595E-04 0.000E+00

     total cpu time spent up to now is      196.9 secs

     total energy              =   -1260.53247868 Ry
     Harris-Foulkes estimate   =   -1260.53247884 Ry
     estimated scf accuracy    <       0.00000143 Ry

     iteration # 15     ecut=    65.00 Ry     beta= 0.20
     Davidson diagonalization with overlap
     ethr =  8.39E-10,  avg # of iterations =  4.0

     negative rho (up, down):  9.615E-04 0.000E+00

     total cpu time spent up to now is      198.4 secs

     total energy              =   -1260.53247916 Ry
     Harris-Foulkes estimate   =   -1260.53247904 Ry
     estimated scf accuracy    <       0.00000036 Ry

     iteration # 16     ecut=    65.00 Ry     beta= 0.20
     Davidson diagonalization with overlap
     ethr =  3.18E-10,  avg # of iterations =  3.2

     negative rho (up, down):  9.613E-04 0.000E+00

     total cpu time spent up to now is      199.7 secs

     total energy              =   -1260.53247938 Ry
     Harris-Foulkes estimate   =   -1260.53247925 Ry
     estimated scf accuracy    <       0.00000009 Ry

     iteration # 17     ecut=    65.00 Ry     beta= 0.20
     Davidson diagonalization with overlap
     ethr =  8.45E-11,  avg # of iterations =  4.8

     negative rho (up, down):  9.613E-04 0.000E+00

     total cpu time spent up to now is      201.4 secs

     total energy              =   -1260.53247942 Ry
[...]
     estimated scf accuracy    <       0.00049892 Ry

     iteration # 27     ecut=    65.00 Ry     beta= 0.20
     Davidson diagonalization with overlap
     ethr =  8.28E-08,  avg # of iterations =  4.2

     negative rho (up, down):  2.712E-04 0.000E+00

     total cpu time spent up to now is     1313.5 secs

     total energy              =   -1260.53243181 Ry
     Harris-Foulkes estimate   =   -1260.53274086 Ry
     estimated scf accuracy    <       0.00184546 Ry

     iteration # 28     ecut=    65.00 Ry     beta= 0.20
     Davidson diagonalization with overlap
     ethr =  8.28E-08,  avg # of iterations =  5.2

     negative rho (up, down):  2.622E-04 0.000E+00

     total cpu time spent up to now is     1315.2 secs

     total energy              =   -1260.53255878 Ry
     Harris-Foulkes estimate   =   -1260.53252062 Ry
     estimated scf accuracy    <       0.00021109 Ry

     iteration # 29     ecut=    65.00 Ry     beta= 0.20
     Davidson diagonalization with overlap
     ethr =  8.28E-08,  avg # of iterations =  1.0

     negative rho (up, down):  2.516E-04 0.000E+00

     total cpu time spent up to now is     1316.2 secs

     total energy              =   -1260.53254183 Ry
     Harris-Foulkes estimate   =   -1260.53256424 Ry
     estimated scf accuracy    <       0.00039460 Ry

     iteration # 30     ecut=    65.00 Ry     beta= 0.20
     Davidson diagonalization with overlap
     ethr =  8.28E-08,  avg # of iterations =  1.0

     negative rho (up, down):  2.624E-04 0.000E+00

     total cpu time spent up to now is     1317.3 secs

     total energy              =   -1260.53246376 Ry
     Harris-Foulkes estimate   =   -1260.53254531 Ry
     estimated scf accuracy    <       0.00030586 Ry

     iteration # 31     ecut=    65.00 Ry     beta= 0.20
     Davidson diagonalization with overlap
     ethr =  8.28E-08,  avg # of iterations =  3.2

     negative rho (up, down):  2.643E-04 0.000E+00

     total cpu time spent up to now is     1318.4 secs

     total energy              =   -1260.53248120 Ry
     Harris-Foulkes estimate   =   -1260.53248383 Ry
     estimated scf accuracy    <       0.00004289 Ry

     iteration # 32     ecut=    65.00 Ry     beta= 0.20
     Davidson diagonalization with overlap
     ethr =  3.83E-08,  avg # of iterations =  4.8

     negative rho (up, down):  2.647E-04 0.000E+00

     total cpu time spent up to now is     1320.0 secs

     total energy              =   -1260.53249216 Ry
     Harris-Foulkes estimate   =   -1260.53249277 Ry
     estimated scf accuracy    <       0.00000587 Ry

     iteration # 33     ecut=    65.00 Ry     beta= 0.20
     Davidson diagonalization with overlap
     ethr =  5.24E-09,  avg # of iterations =  3.0

     negative rho (up, down):  2.698E-04 0.000E+00

     total cpu time spent up to now is     1321.1 secs

     total energy              =   -1260.53249190 Ry
     Harris-Foulkes estimate   =   -1260.53249246 Ry
     estimated scf accuracy    <       0.00000290 Ry

     iteration # 34     ecut=    65.00 Ry     beta= 0.20
     Davidson diagonalization with overlap
     ethr =  2.59E-09,  avg # of iterations =  4.8

     negative rho (up, down):  2.700E-04 0.000E+00

     total cpu time spent up to now is     1322.5 secs

     total energy              =   -1260.53249225 Ry
     Harris-Foulkes estimate   =   -1260.53249264 Ry
     estimated scf accuracy    <       0.00000178 Ry

     iteration # 35     ecut=    65.00 Ry     beta= 0.20
     Davidson diagonalization with overlap
     ethr =  1.59E-09,  avg # of iterations =  1.2

     negative rho (up, down):  2.690E-04 0.000E+00

     total cpu time spent up to now is     1323.5 secs

     total energy              =   -1260.53249231 Ry
     Harris-Foulkes estimate   =   -1260.53249242 Ry
     estimated scf accuracy    <       0.00000075 Ry

     iteration # 36     ecut=    65.00 Ry     beta= 0.20
     Davidson diagonalization with overlap
     ethr =  6.69E-10,  avg # of iterations =  5.0

     negative rho (up, down):  2.685E-04 0.000E+00

     total cpu time spent up to now is     1325.0 secs

     total energy              =   -1260.53249192 Ry
     Harris-Foulkes estimate   =   -1260.53249256 Ry
     estimated scf accuracy    <       0.00000159 Ry

     iteration # 37     ecut=    65.00 Ry     beta= 0.20
     Davidson diagonalization with overlap
     ethr =  6.69E-10,  avg # of iterations =  5.2

     negative rho (up, down):  2.681E-04 0.000E+00

     total cpu time spent up to now is     1326.6 secs

     total energy              =   -1260.53249208 Ry
     Harris-Foulkes estimate   =   -1260.53249262 Ry
     estimated scf accuracy    <       0.00000189 Ry

     iteration # 38     ecut=    65.00 Ry     beta= 0.20
     Davidson diagonalization with overlap
     ethr =  6.69E-10,  avg # of iterations =  4.2

     negative rho (up, down):  2.680E-04 0.000E+00

     total cpu time spent up to now is     1327.9 secs

     total energy              =   -1260.53249227 Ry
     Harris-Foulkes estimate   =   -1260.53249228 Ry
     estimated scf accuracy    <       0.00000003 Ry

     iteration # 39     ecut=    65.00 Ry     beta= 0.20
     Davidson diagonalization with overlap
     ethr =  2.61E-11,  avg # of iterations =  5.2

     negative rho (up, down):  2.680E-04 0.000E+00

     total cpu time spent up to now is     1329.8 secs

     total energy              =   -1260.53249237 Ry
     Harris-Foulkes estimate   =   -1260.53249243 Ry
     estimated scf accuracy    <       0.00000037 Ry

     iteration # 40     ecut=    65.00 Ry     beta= 0.20
     Davidson diagonalization with overlap
     ethr =  2.61E-11,  avg # of iterations =  5.5

     negative rho (up, down):  2.679E-04 0.000E+00

     total cpu time spent up to now is     1331.4 secs

     total energy              =   -1260.53249238 Ry
     Harris-Foulkes estimate   =   -1260.53249239 Ry
     estimated scf accuracy    <       0.00000005 Ry

     iteration # 41     ecut=    65.00 Ry     beta= 0.20
     Davidson diagonalization with overlap
     ethr =  2.61E-11,  avg # of iterations =  2.0

     negative rho (up, down):  2.679E-04 0.000E+00

     total cpu time spent up to now is     1332.4 secs

     total energy              =   -1260.53249238 Ry
     Harris-Foulkes estimate   =   -1260.53249238 Ry
     estimated scf accuracy    <       0.00000002 Ry

     iteration # 42     ecut=    65.00 Ry     beta= 0.20
     Davidson diagonalization with overlap
     ethr =  1.66E-11,  avg # of iterations =  1.0

     negative rho (up, down):  2.680E-04 0.000E+00

     total cpu time spent up to now is     1333.5 secs

     total energy              =   -1260.53249239 Ry
     Harris-Foulkes estimate   =   -1260.53249238 Ry
     estimated scf accuracy    <       0.00000002 Ry

     iteration # 43     ecut=    65.00 Ry     beta= 0.20
     Davidson diagonalization with overlap
     ethr =  1.66E-11,  avg # of iterations =  1.0

     negative rho (up, down):  2.680E-04 0.000E+00

     total cpu time spent up to now is     1334.5 secs

     total energy              =   -1260.53249238 Ry
     Harris-Foulkes estimate   =   -1260.53249239 Ry
     estimated scf accuracy    <       0.00000005 Ry

     iteration # 44     ecut=    65.00 Ry     beta= 0.20
     Davidson diagonalization with overlap
     ethr =  1.66E-11,  avg # of iterations =  1.0

     negative rho (up, down):  2.681E-04 0.000E+00

     total cpu time spent up to now is     1335.5 secs

     total energy              =   -1260.53249238 Ry
     Harris-Foulkes estimate   =   -1260.53249238 Ry
     estimated scf accuracy    <       0.00000004 Ry

     iteration # 45     ecut=    65.00 Ry     beta= 0.20
     Davidson diagonalization with overlap
     ethr =  1.66E-11,  avg # of iterations =  1.0

     negative rho (up, down):  2.681E-04 0.000E+00

     total cpu time spent up to now is     1336.5 secs

     total energy              =   -1260.53249238 Ry
     Harris-Foulkes estimate   =   -1260.53249238 Ry
     estimated scf accuracy    <          8.9E-09 Ry

     iteration # 46     ecut=    65.00 Ry     beta= 0.20
     Davidson diagonalization with overlap
     ethr =  7.94E-12,  avg # of iterations =  4.0

     negative rho (up, down):  2.681E-04 0.000E+00

     total cpu time spent up to now is     1337.9 secs

     total energy              =   -1260.53249238 Ry
     Harris-Foulkes estimate   =   -1260.53249238 Ry
     estimated scf accuracy    <          3.1E-10 Ry

     iteration # 47     ecut=    65.00 Ry     beta= 0.20
     Davidson diagonalization with overlap
     ethr =  2.77E-13,  avg # of iterations =  4.2

     negative rho (up, down):  2.681E-04 0.000E+00

     total cpu time spent up to now is     1339.3 secs

     total energy              =   -1260.53249238 Ry
     Harris-Foulkes estimate   =   -1260.53249238 Ry
     estimated scf accuracy    <          1.6E-10 Ry

     iteration # 48     ecut=    65.00 Ry     beta= 0.20
     Davidson diagonalization with overlap
     ethr =  1.42E-13,  avg # of iterations =  1.0

     negative rho (up, down):  2.681E-04 0.000E+00

     total cpu time spent up to now is     1340.3 secs

     total energy              =   -1260.53249238 Ry
     Harris-Foulkes estimate   =   -1260.53249238 Ry
     estimated scf accuracy    <          1.4E-10 Ry

     iteration # 49     ecut=    65.00 Ry     beta= 0.20
     Davidson diagonalization with overlap
     ethr =  1.23E-13,  avg # of iterations =  1.0

     negative rho (up, down):  2.681E-04 0.000E+00

     total cpu time spent up to now is     1341.3 secs

     total energy              =   -1260.53249238 Ry
     Harris-Foulkes estimate   =   -1260.53249238 Ry
     estimated scf accuracy    <          7.1E-11 Ry

     iteration # 50     ecut=    65.00 Ry     beta= 0.20
     Davidson diagonalization with overlap
     ethr =  1.00E-13,  avg # of iterations =  1.0

     negative rho (up, down):  2.681E-04 0.000E+00

     total cpu time spent up to now is     1342.3 secs

     total energy              =   -1260.53249238 Ry
     Harris-Foulkes estimate   =   -1260.53249238 Ry
     estimated scf accuracy    <          4.2E-11 Ry

     iteration # 51     ecut=    65.00 Ry     beta= 0.20
     Davidson diagonalization with overlap
     ethr =  1.00E-13,  avg # of iterations =  1.0

     negative rho (up, down):  2.681E-04 0.000E+00

     total cpu time spent up to now is     1343.3 secs

     total energy              =   -1260.53249238 Ry
     Harris-Foulkes estimate   =   -1260.53249238 Ry
     estimated scf accuracy    <          1.6E-11 Ry

     iteration # 52     ecut=    65.00 Ry     beta= 0.20
     Davidson diagonalization with overlap
     ethr =  1.00E-13,  avg # of iterations =  1.0

     negative rho (up, down):  2.681E-04 0.000E+00

     total cpu time spent up to now is     1344.3 secs

     total energy              =   -1260.53249238 Ry
     Harris-Foulkes estimate   =   -1260.53249238 Ry
     estimated scf accuracy    <          4.8E-12 Ry

     iteration # 53     ecut=    65.00 Ry     beta= 0.20
     Davidson diagonalization with overlap
     ethr =  1.00E-13,  avg # of iterations =  1.0

     negative rho (up, down):  2.681E-04 0.000E+00

     total cpu time spent up to now is     1345.3 secs

     total energy              =   -1260.53249238 Ry
     Harris-Foulkes estimate   =   -1260.53249238 Ry
     estimated scf accuracy    <          1.0E-12 Ry

     iteration # 54     ecut=    65.00 Ry     beta= 0.20
     Davidson diagonalization with overlap
     ethr =  1.00E-13,  avg # of iterations =  3.0

     negative rho (up, down):  2.681E-04 0.000E+00

     total cpu time spent up to now is     1346.4 secs

     total energy              =   -1260.53249238 Ry
     Harris-Foulkes estimate   =   -1260.53249238 Ry
     estimated scf accuracy    <          1.6E-12 Ry

     iteration # 55     ecut=    65.00 Ry     beta= 0.20
     Davidson diagonalization with overlap
     ethr =  1.00E-13,  avg # of iterations =  1.0

     negative rho (up, down):  2.681E-04 0.000E+00

     total cpu time spent up to now is     1347.4 secs

     End of self-consistent calculation

          k = 0.0000 0.0000 0.0000 ( 10607 PWs)   bands (ev):

   -59.4349 -59.4329 -59.4214 -59.4194 -33.5739 -33.5710 -33.5630 -33.5573
   -33.4952 -33.4411 -33.4026 -33.3835 -33.3811 -33.3504 -33.3412 -33.3388
   -13.3590 -13.2260 -12.1945 -12.1124 -11.9981 -11.8877 -11.5250 -11.5104
   -11.3623 -11.3222  -0.2410  -0.2243  -0.2140  -0.0725   0.1271   0.6670
     1.2771   1.3209   1.4892   1.5734   1.9279   1.9664   2.1493   2.2471
     2.2669   2.3291   2.3324   2.3914   2.4618   2.5003   2.5540   2.7258
     2.7970   3.2151   3.2541   3.2812   3.3164   3.5517   3.6126   3.6553
     6.0635   6.2333   7.5353   7.6317   7.6339   7.8202   8.0363   8.2290
     8.5501   8.7664   8.7994

          k = 0.0000 0.2784 0.0000 ( 10591 PWs)   bands (ev):

   -59.4348 -59.4328 -59.4214 -59.4194 -33.5769 -33.5738 -33.5680 -33.5622
   -33.4946 -33.4406 -33.4027 -33.3833 -33.3807 -33.3504 -33.3413 -33.3386
   -13.2667 -13.1461 -12.1187 -12.0791 -11.9828 -11.8616 -11.5168 -11.4936
   -11.2959 -11.2733  -0.2939  -0.2773  -0.2546  -0.1237  -0.0834   0.1491
     0.4953   0.6532   0.6920   0.7961   1.3259   1.5559   1.6194   1.9918
     2.0294   2.2805   2.4347   2.5209   2.7476   2.7875   2.9329   3.0381
     3.2921   3.3007   3.3520   3.4561   3.4748   3.8529   3.8593   4.0996
     6.1783   6.3542   7.6138   7.6911   7.7764   7.9159   8.0648   8.4557
     8.4780   8.8252   8.8450

          k = 0.3401 0.0000 0.0000 ( 10575 PWs)   bands (ev):

   -59.4297 -59.4277 -59.4230 -59.4210 -33.5673 -33.5649 -33.5603 -33.5561
   -33.4933 -33.4658 -33.4526 -33.4433 -33.3823 -33.3785 -33.3618 -33.3488
   -12.7561 -12.6026 -12.0847 -11.9424 -11.9121 -11.8375 -11.4644 -11.4429
   -11.4295 -11.3637  -0.8191  -0.7477   0.0615   0.0754   0.2535   0.5502
     0.6561   1.0691   1.1063   1.3624   1.4052   1.4804   1.8426   1.9524
     1.9652   2.2022   2.2435   2.3686   2.4138   2.4838   2.5488   2.6439
     2.6857   3.0599   3.3073   3.3335   3.4568   3.6422   3.7773   3.8607
     6.4377   6.6771   7.3352   7.3655   7.5217   7.8022   7.8349   7.9737
     8.1666   8.2148   8.3967

          k = 0.3401 0.2784 0.0000 ( 10559 PWs)   bands (ev):

   -59.4297 -59.4277 -59.4230 -59.4210 -33.5707 -33.5682 -33.5646 -33.5605
   -33.4928 -33.4654 -33.4521 -33.4429 -33.3822 -33.3785 -33.3617 -33.3488
   -12.6750 -12.5408 -12.0406 -11.9374 -11.8747 -11.8141 -11.4271 -11.4062
   -11.3193 -11.3042  -0.8222  -0.7474  -0.0247   0.0010   0.0808   0.2460
     0.4141   0.5271   0.5620   0.8114   0.8680   1.1742   1.4539   1.4914
     1.5962   1.5975   1.7736   1.8953   2.0619   2.5097   2.7848   2.9774
     3.2332   3.2847   3.7278   3.9013   3.9212   4.0677   4.1067   4.1301
     6.4755   6.6704   7.4191   7.4503   7.7983   7.9814   8.0154   8.0373
     8.2906   8.3196   8.3745

     the Fermi energy is     5.1325 ev

!    total energy              =   -1260.53249238 Ry
     Harris-Foulkes estimate   =   -1260.53249238 Ry
     estimated scf accuracy    <          3.0E-13 Ry

     total all-electron energy =     -9087.672427 Ry

     The total energy is the sum of the following terms:

     one-electron contribution =    -572.13236125 Ry
     hartree contribution      =     330.02193214 Ry
     xc contribution           =    -153.06779842 Ry
     ewald contribution        =    -501.46532495 Ry
     one-center paw contrib.   =    -363.88893986 Ry
     smearing contrib. (-TS)   =      -0.00000002 Ry

     convergence has been achieved in  55 iterations

     negative rho (up, down):  2.681E-04 0.000E+00

     Forces acting on atoms (cartesian axes, Ry/au):

     atom    1 type  1   force =     0.00000000    0.00113329    0.00001125
     atom    2 type  1   force =     0.00000000   -0.00113329   -0.00001125
     atom    3 type  1   force =     0.00000000   -0.00113329    0.00001125
     atom    4 type  1   force =     0.00000000    0.00113329   -0.00001125
     atom    5 type  2   force =     0.00000000   -0.00082455   -0.00036587
     atom    6 type  2   force =     0.00000000    0.00082455    0.00036587
     atom    7 type  2   force =     0.00000000    0.00082455   -0.00036587
     atom    8 type  2   force =     0.00000000   -0.00082455    0.00036587
     atom    9 type  2   force =     0.00000000   -0.00097784   -0.00023130
     atom   10 type  2   force =     0.00000000    0.00097784    0.00023130
     atom   11 type  2   force =     0.00000000    0.00097784   -0.00023130
     atom   12 type  2   force =     0.00000000   -0.00029548    0.00000000
     atom   13 type  2   force =     0.00000000    0.00029548    0.00000000
     atom   14 type  2   force =     0.00000000   -0.00097784    0.00023130

     Total force =     0.003551     Total SCF correction =     0.000002


     Computing stress (Cartesian axis) and pressure


     negative rho (up, down):  2.681E-04 0.000E+00
          total   stress  (Ry/bohr**3)                   (kbar)     P=       -3.03
  -0.00001390   0.00000000   0.00000000           -2.05        0.00        0.00
   0.00000000  -0.00003675   0.00000000            0.00       -5.41        0.00
   0.00000000   0.00000000  -0.00001106            0.00        0.00       -1.63


     Writing output data file ./v2o5.save/
 
     init_run     :      3.45s CPU      4.57s WALL (       2 calls)
     electrons    :   1134.37s CPU   1209.48s WALL (      27 calls)
     update_pot   :     40.31s CPU     40.47s WALL (      25 calls)
     forces       :     25.39s CPU     26.47s WALL (      27 calls)
     stress       :     56.73s CPU     58.75s WALL (      27 calls)

     Called by init_run:
     wfcinit      :      0.51s CPU      0.87s WALL (       2 calls)
     potinit      :      0.81s CPU      0.94s WALL (       2 calls)
     hinit0       :      1.30s CPU      1.67s WALL (       2 calls)

     Called by electrons:
     c_bands      :    684.67s CPU    700.98s WALL (     878 calls)
     sum_band     :    188.37s CPU    220.15s WALL (     878 calls)
     v_of_rho     :     39.01s CPU     39.92s WALL (     904 calls)
     newd         :    100.31s CPU    122.84s WALL (     904 calls)
     PAW_pot      :     89.38s CPU     89.69s WALL (     929 calls)
     mix_rho      :     36.40s CPU     37.13s WALL (     878 calls)

     Called by c_bands:
     init_us_2    :      7.31s CPU      7.60s WALL (    7348 calls)
     cegterg      :    660.45s CPU    674.52s WALL (    3512 calls)

     Called by sum_band:
     sum_band:bec :      0.68s CPU      0.70s WALL (    3612 calls)
     addusdens    :     92.08s CPU    121.35s WALL (     878 calls)

     Called by *egterg:
     h_psi        :    323.81s CPU    334.88s WALL (   14828 calls)
     s_psi        :     34.44s CPU     34.81s WALL (   14828 calls)
     g_psi        :      1.79s CPU      1.81s WALL (   11308 calls)
     cdiaghg      :    164.26s CPU    164.85s WALL (   14716 calls)

     Called by h_psi:
     h_psi:calbec :     47.93s CPU     48.85s WALL (   14828 calls)
     vloc_psi     :    235.36s CPU    245.04s WALL (   14828 calls)
     add_vuspsi   :     37.98s CPU     38.16s WALL (   14828 calls)

     General routines
     calbec       :     67.25s CPU     68.31s WALL (   18980 calls)
     fft          :     29.24s CPU     29.85s WALL (   12399 calls)
     ffts         :     20.50s CPU     20.91s WALL (   41998 calls)
     fftw         :    264.47s CPU    275.23s WALL ( 1393124 calls)
     interpolate  :      2.80s CPU      2.84s WALL (     904 calls)
 
     Parallel routines
     fft_scatt_xy :     29.11s CPU     30.25s WALL ( 1447521 calls)
     fft_scatt_yz :    160.20s CPU    166.56s WALL ( 1447521 calls)
 
     PWSCF        :  21m 8.05s CPU  22m30.54s WALL

 
   This run was terminated on:  11:41:25  20Feb2021            

=------------------------------------------------------------------------------=
   JOB DONE.
=------------------------------------------------------------------------------=
