
     Program PWSCF v.6.4.1 starts on 27Oct2024 at 15:19:51 

     This program is part of the open-source Quantum ESPRESSO suite
     for quantum simulation of materials; please cite
         "P. Giannozzi et al., J. Phys.:Condens. Matter 21 395502 (2009);
         "P. Giannozzi et al., J. Phys.:Condens. Matter 29 465901 (2017);
          URL http://www.quantum-espresso.org", 
     in publications or presentations arising from this work. More details at
     http://www.quantum-espresso.org/quote

     Parallel version (MPI), running on    16 processors

     MPI processes distributed on     1 nodes
     R & G space division:  proc/nbgrp/npool/nimage =      16
     Reading input from v2o5.vc-rlx.in

     Current dimensions of program PWSCF are:
     Max number of different atomic species (ntypx) = 10
     Max number of k-points (npk) =  40000
     Max angular momentum in pseudopotentials (lmaxx) =  3

     Subspace diagonalization in iterative solution of the eigenvalue problem:
     one sub-group per band group will be used
     ELPA distributed-memory algorithm (size of sub-group:  2*  2 procs)


     Parallelization info
     --------------------
     sticks:   dense  smooth     PW     G-vecs:    dense   smooth      PW
     Min          36      36     10                 1868     1868     284
     Max          37      37     11                 1877     1877     291
     Sum         591     591    173                29981    29981    4613



     bravais-lattice index     =            8
     lattice parameter (alat)  =       6.7498  a.u.
     unit-cell volume          =    1351.1084 (a.u.)^3
     number of atoms/cell      =           14
     number of atomic types    =            2
     number of electrons       =       112.00
     number of Kohn-Sham states=           56
     kinetic-energy cutoff     =      30.0000  Ry
     charge density cutoff     =     120.0000  Ry
     convergence threshold     =      1.0E-10
     mixing beta               =       0.7000
     number of iterations used =            8  plain     mixing
     Exchange-correlation      = PBE ( 1  4  3  4 0 0)
     nstep                     =          500


     celldm(1)=   6.749813  celldm(2)=   1.367024  celldm(3)=   3.213949
     celldm(4)=   0.000000  celldm(5)=   0.000000  celldm(6)=   0.000000

     crystal axes: (cart. coord. in units of alat)
               a(1) = (   1.000000   0.000000   0.000000 )  
               a(2) = (   0.000000   1.367024   0.000000 )  
               a(3) = (   0.000000   0.000000   3.213949 )  

     reciprocal axes: (cart. coord. in units 2 pi/alat)
               b(1) = (  1.000000  0.000000  0.000000 )  
               b(2) = (  0.000000  0.731516  0.000000 )  
               b(3) = (  0.000000  0.000000  0.311144 )  


     PseudoPot. # 1 for V  read from file:
     /home/mpicuntureo/pseudos/v.nc.upf
     MD5 check sum: 40fb93c06b4f9d8c28c5ccd071294a04
     Pseudo is Norm-conserving + core correction, Zval = 13.0
     Generated using ONCVPSP code by D. R. Hamann
     Using radial grid of 1536 points,  6 beta functions with: 
                l(1) =   0
                l(2) =   0
                l(3) =   1
                l(4) =   1
                l(5) =   2
                l(6) =   2

     PseudoPot. # 2 for O  read from file:
     /home/mpicuntureo/pseudos/o.nc.upf
     MD5 check sum: 3e3f909f7470e8921608ab6b1f57bbae
     Pseudo is Norm-conserving + core correction, Zval =  6.0
     Generated using ONCVPSP code by D. R. Hamann
     Using radial grid of  936 points,  5 beta functions with: 
                l(1) =   0
                l(2) =   0
                l(3) =   1
                l(4) =   1
                l(5) =   2

     atomic species   valence    mass     pseudopotential
        V             13.00    50.94150     V ( 1.00)
        O              6.00    15.99940     O ( 1.00)

      8 Sym. Ops., with inversion, found ( 4 have fractional translation)



   Cartesian axes

     site n.     atom                  positions (alat units)
         1           V   tau(   1) = (   0.0000000   0.5342521   2.0850183  )
         2           V   tau(   2) = (   0.5000000   0.8327717   2.7359052  )
         3           V   tau(   3) = (   0.5000000   0.8327717   0.4780438  )
         4           V   tau(   4) = (   0.0000000   0.5342521   1.1289307  )
         5           O   tau(   5) = (   0.5000000   0.6694361   2.1905017  )
         6           O   tau(   6) = (   0.0000000   0.6975877   2.6304218  )
         7           O   tau(   7) = (   0.0000000   0.6975877   0.5835272  )
         8           O   tau(   8) = (   0.5000000   0.6694361   1.0234473  )
         9           O   tau(   9) = (   0.0000000   0.0924598   1.1437779  )
        10           O   tau(  10) = (   0.5000000   1.2745640   0.4631966  )
        11           O   tau(  11) = (   0.5000000   1.2745640   2.7507524  )
        12           O   tau(  12) = (   0.5000000   0.6849446   0.0000000  )
        13           O   tau(  13) = (   0.0000000   0.6820792   1.6069745  )
        14           O   tau(  14) = (   0.0000000   0.0924598   2.0701711  )

     number of k points=     4
                       cart. coord. in units 2pi/alat
        k(    1) = (   0.0000000   0.0000000   0.0000000), wk =   0.2222222
        k(    2) = (   0.0000000   0.2438387   0.0000000), wk =   0.4444444
        k(    3) = (   0.3333333   0.0000000   0.0000000), wk =   0.4444444
        k(    4) = (   0.3333333   0.2438387   0.0000000), wk =   0.8888889

     Dense  grid:    29981 G-vectors     FFT dimensions: (  24,  36,  80)

     Estimated max dynamical RAM per process >       8.98 MB

     Estimated total dynamical RAM >     143.75 MB

     Check: negative core charge=   -0.001861

     Initial potential from superposition of free atoms

     starting charge  111.99579, renormalised to  112.00000
     Starting wfcs are   80 randomized atomic wfcs

     total cpu time spent up to now is        0.8 secs

     Self-consistent Calculation

     iteration #  1     ecut=    30.00 Ry     beta= 0.70
     Davidson diagonalization with overlap
     ethr =  1.00E-02,  avg # of iterations =  2.0

     total cpu time spent up to now is        1.4 secs

     total energy              =    -908.10922749 Ry
     Harris-Foulkes estimate   =    -913.98077096 Ry
     estimated scf accuracy    <       7.49904407 Ry

     iteration #  2     ecut=    30.00 Ry     beta= 0.70
     Davidson diagonalization with overlap
     ethr =  6.70E-03,  avg # of iterations =  6.0

     total cpu time spent up to now is        2.7 secs

     total energy              =    -899.27718586 Ry
     Harris-Foulkes estimate   =    -920.36062412 Ry
     estimated scf accuracy    <      79.28496912 Ry

     iteration #  3     ecut=    30.00 Ry     beta= 0.70
     Davidson diagonalization with overlap
     ethr =  6.70E-03,  avg # of iterations =  5.0

     total cpu time spent up to now is        4.3 secs

     total energy              =    -911.71823411 Ry
     Harris-Foulkes estimate   =    -912.45986141 Ry
     estimated scf accuracy    <       2.94663314 Ry

     iteration #  4     ecut=    30.00 Ry     beta= 0.70
     Davidson diagonalization with overlap
     ethr =  2.63E-03,  avg # of iterations =  2.5

     total cpu time spent up to now is        4.9 secs

     total energy              =    -911.64584838 Ry
     Harris-Foulkes estimate   =    -911.94977055 Ry
     estimated scf accuracy    <       1.22455114 Ry

     iteration #  5     ecut=    30.00 Ry     beta= 0.70
     Davidson diagonalization with overlap
     ethr =  1.09E-03,  avg # of iterations =  3.0

     total cpu time spent up to now is        5.8 secs

     total energy              =    -911.74204290 Ry
     Harris-Foulkes estimate   =    -911.77770323 Ry
     estimated scf accuracy    <       0.16717199 Ry

     iteration #  6     ecut=    30.00 Ry     beta= 0.70
     Davidson diagonalization with overlap
     ethr =  1.49E-04,  avg # of iterations =  4.0

     total cpu time spent up to now is        6.8 secs

     total energy              =    -911.77526211 Ry
     Harris-Foulkes estimate   =    -911.78059706 Ry
     estimated scf accuracy    <       0.01054130 Ry

     iteration #  7     ecut=    30.00 Ry     beta= 0.70
     Davidson diagonalization with overlap
     ethr =  9.41E-06,  avg # of iterations =  4.8

     total cpu time spent up to now is        8.3 secs

     total energy              =    -911.77964251 Ry
     Harris-Foulkes estimate   =    -911.78279101 Ry
     estimated scf accuracy    <       0.01323105 Ry

     iteration #  8     ecut=    30.00 Ry     beta= 0.70
     Davidson diagonalization with overlap
     ethr =  9.41E-06,  avg # of iterations =  3.0

     total cpu time spent up to now is        9.0 secs

     total energy              =    -911.77962801 Ry
     Harris-Foulkes estimate   =    -911.78058870 Ry
     estimated scf accuracy    <       0.00486765 Ry

     iteration #  9     ecut=    30.00 Ry     beta= 0.70
     Davidson diagonalization with overlap
     ethr =  4.35E-06,  avg # of iterations =  3.0

     total cpu time spent up to now is        9.7 secs

     total energy              =    -911.78012637 Ry
     Harris-Foulkes estimate   =    -911.78026144 Ry
     estimated scf accuracy    <       0.00041230 Ry

     iteration # 10     ecut=    30.00 Ry     beta= 0.70
     Davidson diagonalization with overlap
     ethr =  3.68E-07,  avg # of iterations =  4.0

     total cpu time spent up to now is       10.7 secs

     total energy              =    -911.78021634 Ry
     Harris-Foulkes estimate   =    -911.78022152 Ry
     estimated scf accuracy    <       0.00001741 Ry

     iteration # 11     ecut=    30.00 Ry     beta= 0.70
     Davidson diagonalization with overlap
     ethr =  1.55E-08,  avg # of iterations =  4.0

     total cpu time spent up to now is       11.8 secs

     total energy              =    -911.78021831 Ry
     Harris-Foulkes estimate   =    -911.78021996 Ry
     estimated scf accuracy    <       0.00000401 Ry

     iteration # 12     ecut=    30.00 Ry     beta= 0.70
     Davidson diagonalization with overlap
     ethr =  3.58E-09,  avg # of iterations =  4.0

     total cpu time spent up to now is       13.0 secs

     total energy              =    -911.78021945 Ry
     Harris-Foulkes estimate   =    -911.78021950 Ry
     estimated scf accuracy    <       0.00000022 Ry

     iteration # 13     ecut=    30.00 Ry     beta= 0.70
     Davidson diagonalization with overlap
     ethr =  1.93E-10,  avg # of iterations =  3.5

     total cpu time spent up to now is       13.8 secs

     total energy              =    -911.78021946 Ry
     Harris-Foulkes estimate   =    -911.78021948 Ry
     estimated scf accuracy    <       0.00000005 Ry

     iteration # 14     ecut=    30.00 Ry     beta= 0.70
     Davidson diagonalization with overlap
     ethr =  4.32E-11,  avg # of iterations =  3.8

     total cpu time spent up to now is       14.9 secs

     total energy              =    -911.78021947 Ry
     Harris-Foulkes estimate   =    -911.78021947 Ry
     estimated scf accuracy    <          3.5E-09 Ry

     iteration # 15     ecut=    30.00 Ry     beta= 0.70
     Davidson diagonalization with overlap
     ethr =  3.09E-12,  avg # of iterations =  3.8

     total cpu time spent up to now is       15.8 secs

     total energy              =    -911.78021947 Ry
     Harris-Foulkes estimate   =    -911.78021947 Ry
     estimated scf accuracy    <          1.0E-10 Ry

     iteration # 16     ecut=    30.00 Ry     beta= 0.70
     Davidson diagonalization with overlap
     ethr =  1.00E-13,  avg # of iterations =  4.2

     total cpu time spent up to now is       17.1 secs

     End of self-consistent calculation

          k = 0.0000 0.0000 0.0000 (  3731 PWs)   bands (ev):

   -64.4852 -64.4499 -64.4496 -64.4073 -39.0841 -39.0448 -38.9888 -38.9858
   -38.9605 -38.9584 -38.9542 -38.9538 -38.9365 -38.9253 -38.9165 -38.8913
   -16.0118 -15.9342 -14.9527 -14.9095 -14.6868 -14.6148 -13.8786 -13.8669
   -13.7595 -13.7376  -1.6654  -1.6444  -1.4042  -1.3907  -0.8326  -0.6101
     0.0486   0.3636   0.4499   0.5069   0.8186   0.9069   1.3280   1.4458
     1.4974   1.5390   1.5450   1.5857   1.7912   1.8129   1.8505   1.9776
     1.9805   2.0579   2.4421   2.6574   2.6892   2.7068   2.9689   3.0608

          k = 0.0000 0.2438 0.0000 (  3738 PWs)   bands (ev):

   -64.4812 -64.4730 -64.4462 -64.4151 -39.0654 -39.0648 -39.0453 -39.0207
   -38.9826 -38.9819 -38.9806 -38.9521 -38.9464 -38.9341 -38.8715 -38.8390
   -16.0018 -15.9308 -14.9384 -14.9107 -14.6826 -14.6078 -13.8910 -13.8587
   -13.7484 -13.7127  -1.6629  -1.6430  -1.4028  -1.3708  -0.9459  -0.6580
    -0.5078  -0.2452   0.0376   0.1507   0.7372   0.7828   0.9728   1.3744
     1.4287   1.5120   1.5522   1.6163   1.8370   2.1610   2.1987   2.2626
     2.3373   2.3710   2.4436   2.5545   2.5753   2.8987   2.9984   3.1795

          k = 0.3333 0.0000 0.0000 (  3744 PWs)   bands (ev):

   -64.4931 -64.4721 -64.4412 -64.4186 -39.0575 -39.0454 -39.0422 -39.0384
   -38.9959 -38.9937 -38.9702 -38.9665 -38.9276 -38.9029 -38.8927 -38.8904
   -15.5032 -15.4283 -14.8835 -14.8689 -14.6707 -14.5976 -13.8424 -13.8121
   -13.7752 -13.7526  -2.1447  -2.1003  -1.2173  -0.9308  -0.7254  -0.6864
    -0.5183  -0.0582  -0.0143   0.2751   0.3408   0.6291   0.9191   0.9385
     1.1336   1.4205   1.4254   1.4280   1.6398   1.6887   1.7277   1.7654
     1.9450   1.9903   2.6065   2.8375   2.8650   2.8798   3.0320   3.1595

          k = 0.3333 0.2438 0.0000 (  3760 PWs)   bands (ev):

   -64.4929 -64.4763 -64.4676 -64.4479 -39.0678 -39.0660 -39.0345 -39.0275
   -39.0158 -39.0104 -38.9909 -38.9857 -38.9569 -38.9301 -38.9115 -38.9061
   -15.4932 -15.4185 -14.8808 -14.8712 -14.6593 -14.5943 -13.8326 -13.7960
   -13.7629 -13.7210  -2.1571  -2.1152  -1.2082  -0.9371  -0.7851  -0.7459
    -0.5824  -0.4005  -0.2140   0.0719   0.0925   0.2823   0.6341   0.7133
     0.8253   1.1363   1.2502   1.2900   1.3734   1.5833   1.8642   2.2227
     2.2304   2.3626   2.8023   2.9189   2.9386   3.0877   3.1151   3.2148

     highest occupied level (ev):     3.2148

!    total energy              =    -911.78021947 Ry
     Harris-Foulkes estimate   =    -911.78021947 Ry
     estimated scf accuracy    <          4.2E-11 Ry

     The total energy is the sum of the following terms:

     one-electron contribution =    -635.42176502 Ry
     hartree contribution      =     345.50310165 Ry
     xc contribution           =    -170.83713120 Ry
     ewald contribution        =    -451.02442489 Ry

     convergence has been achieved in  16 iterations

     Forces acting on atoms (cartesian axes, Ry/au):

     atom    1 type  1   force =     0.00000000   -0.12334947    0.03975133
     atom    2 type  1   force =     0.00000000    0.12334947   -0.03975133
     atom    3 type  1   force =     0.00000000    0.12334947    0.03975133
     atom    4 type  1   force =    -0.00000000   -0.12334947   -0.03975133
     atom    5 type  2   force =     0.00000000    0.03000209    0.02914174
     atom    6 type  2   force =     0.00000000   -0.03000209   -0.02914174
     atom    7 type  2   force =     0.00000000   -0.03000209    0.02914174
     atom    8 type  2   force =     0.00000000    0.03000209   -0.02914174
     atom    9 type  2   force =     0.00000000    0.04118592   -0.01779989
     atom   10 type  2   force =    -0.00000000   -0.04118592    0.01779989
     atom   11 type  2   force =     0.00000000   -0.04118592   -0.01779989
     atom   12 type  2   force =     0.00000000   -0.06961068    0.00000000
     atom   13 type  2   force =     0.00000000    0.06961068    0.00000000
     atom   14 type  2   force =     0.00000000    0.04118592    0.01779989

     Total force =     0.303187     Total SCF correction =     0.000020


     Computing stress (Cartesian axis) and pressure

          total   stress  (Ry/bohr**3)                   (kbar)     P=-2402.62
  -0.01584000   0.00000000   0.00000000      -2330.14      0.00      0.00
   0.00000000  -0.01693783   0.00000000          0.00  -2491.64      0.00
   0.00000000   0.00000000  -0.01622015          0.00      0.00  -2386.07


     BFGS Geometry Optimization

     number of scf cycles    =   1
     number of bfgs steps    =   0

     enthalpy new            =    -911.7802194724 Ry

     new trust radius        =       0.5000000000 bohr
     new conv_thr            =            1.0E-10 Ry

     new unit-cell volume =   1102.32414 a.u.^3 (   163.34758 Ang^3 )
     density =      3.69787 g/cm^3

CELL_PARAMETERS (alat=  6.74981256)
   0.936394844   0.000000000   0.000000000
   0.000000000   1.274047784   0.000000000
   0.000000000   0.000000000   3.004619279

ATOMIC_POSITIONS (crystal)
V        0.000000000   0.388666954   0.649034753
V        0.500000082   0.611333211   0.850965494
V        0.500000082   0.611333211   0.149034671
V       -0.000000000   0.388666954   0.350965411
O        0.500000082   0.490225679   0.681776704
O        0.000000000   0.509774487   0.818223541
O        0.000000000   0.509774487   0.181776623
O        0.500000082   0.490225679   0.318223459
O        0.000000000   0.068352777   0.355747572
O        0.500000082   0.931647388   0.144252511
O        0.500000082   0.931647388   0.855747653
O        0.500000082   0.499836379   0.000000000
O        0.000000000   0.500163785   0.500000082
O        0.000000000   0.068352777   0.644252594



     Writing output data file v2o5.save/
     NEW-OLD atomic charge density approx. for the potential

     Check: negative core charge=   -0.001245

     negative rho (up, down):  4.275E-06 0.000E+00
     extrapolated charge   86.72359, renormalised to  112.00000

     total cpu time spent up to now is       18.7 secs

     Self-consistent Calculation

     iteration #  1     ecut=    30.00 Ry     beta= 0.70
     Davidson diagonalization with overlap
     c_bands:  1 eigenvalues not converged
     c_bands:  1 eigenvalues not converged
     c_bands:  2 eigenvalues not converged
     c_bands:  1 eigenvalues not converged
     ethr =  1.00E-06,  avg # of iterations = 20.0

     total cpu time spent up to now is       23.5 secs

     total energy              =    -750.65366113 Ry
     Harris-Foulkes estimate   =   -1052.83590152 Ry
     estimated scf accuracy    <     177.04556485 Ry

     iteration #  2     ecut=    30.00 Ry     beta= 0.70
     Davidson diagonalization with overlap
     ethr =  1.00E-02,  avg # of iterations =  8.5

     total cpu time spent up to now is       26.7 secs

     total energy              =    -829.12238365 Ry
     Harris-Foulkes estimate   =   -1130.03974393 Ry
     estimated scf accuracy    <     827.13149250 Ry

     iteration #  3     ecut=    30.00 Ry     beta= 0.70
     Davidson diagonalization with overlap
     ethr =  1.00E-02,  avg # of iterations =  6.5

     total cpu time spent up to now is       28.8 secs

     total energy              =    -924.39035154 Ry
     Harris-Foulkes estimate   =    -940.02749945 Ry
     estimated scf accuracy    <      61.08970442 Ry

     iteration #  4     ecut=    30.00 Ry     beta= 0.70
     Davidson diagonalization with overlap
     ethr =  1.00E-02,  avg # of iterations =  3.0

     total cpu time spent up to now is       29.7 secs

     total energy              =    -918.63806777 Ry
     Harris-Foulkes estimate   =    -926.78158280 Ry
     estimated scf accuracy    <      29.87807549 Ry

     iteration #  5     ecut=    30.00 Ry     beta= 0.70
     Davidson diagonalization with overlap
     ethr =  1.00E-02,  avg # of iterations =  2.0

     total cpu time spent up to now is       30.2 secs

     total energy              =    -915.55578536 Ry
     Harris-Foulkes estimate   =    -919.49175125 Ry
     estimated scf accuracy    <      13.99397327 Ry

     iteration #  6     ecut=    30.00 Ry     beta= 0.70
     Davidson diagonalization with overlap
     ethr =  1.00E-02,  avg # of iterations =  2.5

     negative rho (up, down):  5.435E-03 0.000E+00

     total cpu time spent up to now is       30.8 secs

     total energy              =    -914.96941473 Ry
     Harris-Foulkes estimate   =    -916.25870819 Ry
     estimated scf accuracy    <       5.27023153 Ry

     iteration #  7     ecut=    30.00 Ry     beta= 0.70
     Davidson diagonalization with overlap
     ethr =  4.71E-03,  avg # of iterations =  3.0

     negative rho (up, down):  1.362E-03 0.000E+00

     total cpu time spent up to now is       31.5 secs

     total energy              =    -915.43983961 Ry
     Harris-Foulkes estimate   =    -915.59071085 Ry
     estimated scf accuracy    <       1.32444864 Ry

     iteration #  8     ecut=    30.00 Ry     beta= 0.70
     Davidson diagonalization with overlap
     ethr =  1.18E-03,  avg # of iterations =  3.8

     total cpu time spent up to now is       32.2 secs

     total energy              =    -915.56510171 Ry
     Harris-Foulkes estimate   =    -915.51190058 Ry
     estimated scf accuracy    <       0.76428111 Ry

     iteration #  9     ecut=    30.00 Ry     beta= 0.70
     Davidson diagonalization with overlap
     ethr =  6.82E-04,  avg # of iterations =  3.0

     total cpu time spent up to now is       32.9 secs

     total energy              =    -915.35534155 Ry
     Harris-Foulkes estimate   =    -915.64100273 Ry
     estimated scf accuracy    <       1.13062701 Ry

     iteration # 10     ecut=    30.00 Ry     beta= 0.70
     Davidson diagonalization with overlap
     ethr =  6.82E-04,  avg # of iterations =  2.8

     total cpu time spent up to now is       33.5 secs

     total energy              =    -915.14455566 Ry
     Harris-Foulkes estimate   =    -915.38987287 Ry
     estimated scf accuracy    <       0.47509127 Ry

     iteration # 11     ecut=    30.00 Ry     beta= 0.70
     Davidson diagonalization with overlap
     ethr =  4.24E-04,  avg # of iterations =  4.0

     total cpu time spent up to now is       34.8 secs

     total energy              =    -915.35152134 Ry
     Harris-Foulkes estimate   =    -915.40705453 Ry
     estimated scf accuracy    <       0.36955648 Ry

     iteration # 12     ecut=    30.00 Ry     beta= 0.70
     Davidson diagonalization with overlap
     ethr =  3.30E-04,  avg # of iterations =  1.0

     total cpu time spent up to now is       35.4 secs

     total energy              =    -915.30737277 Ry
     Harris-Foulkes estimate   =    -915.35759742 Ry
     estimated scf accuracy    <       0.20146530 Ry

     iteration # 13     ecut=    30.00 Ry     beta= 0.70
     Davidson diagonalization with overlap
     ethr =  1.80E-04,  avg # of iterations =  3.0

     total cpu time spent up to now is       36.2 secs

     total energy              =    -915.34563027 Ry
     Harris-Foulkes estimate   =    -915.34609187 Ry
     estimated scf accuracy    <       0.00220416 Ry

     iteration # 14     ecut=    30.00 Ry     beta= 0.70
     Davidson diagonalization with overlap
     ethr =  1.97E-06,  avg # of iterations =  2.5

     total cpu time spent up to now is       36.9 secs

     total energy              =    -915.34565207 Ry
     Harris-Foulkes estimate   =    -915.34593592 Ry
     estimated scf accuracy    <       0.00108606 Ry

     iteration # 15     ecut=    30.00 Ry     beta= 0.70
     Davidson diagonalization with overlap
     ethr =  9.70E-07,  avg # of iterations =  4.0

     total cpu time spent up to now is       37.9 secs

     total energy              =    -915.34591223 Ry
     Harris-Foulkes estimate   =    -915.34605415 Ry
     estimated scf accuracy    <       0.00167676 Ry

     iteration # 16     ecut=    30.00 Ry     beta= 0.70
     Davidson diagonalization with overlap
     ethr =  9.70E-07,  avg # of iterations =  1.0

     total cpu time spent up to now is       38.6 secs

     total energy              =    -915.34570232 Ry
     Harris-Foulkes estimate   =    -915.34592555 Ry
     estimated scf accuracy    <       0.00131264 Ry

     iteration # 17     ecut=    30.00 Ry     beta= 0.70
     Davidson diagonalization with overlap
     ethr =  9.70E-07,  avg # of iterations =  2.8

     total cpu time spent up to now is       39.3 secs

     total energy              =    -915.34571183 Ry
     Harris-Foulkes estimate   =    -915.34576556 Ry
     estimated scf accuracy    <       0.00039394 Ry

     iteration # 18     ecut=    30.00 Ry     beta= 0.70
     Davidson diagonalization with overlap
     ethr =  3.52E-07,  avg # of iterations =  3.5

     total cpu time spent up to now is       40.1 secs

     total energy              =    -915.34571538 Ry
     Harris-Foulkes estimate   =    -915.34574402 Ry
     estimated scf accuracy    <       0.00012513 Ry

     iteration # 19     ecut=    30.00 Ry     beta= 0.70
     Davidson diagonalization with overlap
     ethr =  1.12E-07,  avg # of iterations =  3.2

     total cpu time spent up to now is       40.9 secs

     total energy              =    -915.34573258 Ry
     Harris-Foulkes estimate   =    -915.34573407 Ry
     estimated scf accuracy    <       0.00000617 Ry

     iteration # 20     ecut=    30.00 Ry     beta= 0.70
     Davidson diagonalization with overlap
     ethr =  5.51E-09,  avg # of iterations =  4.2

     total cpu time spent up to now is       41.9 secs

     total energy              =    -915.34573543 Ry
     Harris-Foulkes estimate   =    -915.34573545 Ry
     estimated scf accuracy    <       0.00000007 Ry

     iteration # 21     ecut=    30.00 Ry     beta= 0.70
     Davidson diagonalization with overlap
     ethr =  6.60E-11,  avg # of iterations =  4.5

     total cpu time spent up to now is       43.0 secs

     total energy              =    -915.34573546 Ry
     Harris-Foulkes estimate   =    -915.34573558 Ry
     estimated scf accuracy    <       0.00000037 Ry

     iteration # 22     ecut=    30.00 Ry     beta= 0.70
     Davidson diagonalization with overlap
     ethr =  6.60E-11,  avg # of iterations =  4.0

     total cpu time spent up to now is       44.3 secs

     total energy              =    -915.34573550 Ry
     Harris-Foulkes estimate   =    -915.34573551 Ry
     estimated scf accuracy    <       0.00000002 Ry

     iteration # 23     ecut=    30.00 Ry     beta= 0.70
     Davidson diagonalization with overlap
     ethr =  1.60E-11,  avg # of iterations =  3.0

     total cpu time spent up to now is       45.0 secs

     total energy              =    -915.34573550 Ry
     Harris-Foulkes estimate   =    -915.34573550 Ry
     estimated scf accuracy    <          3.1E-09 Ry

     iteration # 24     ecut=    30.00 Ry     beta= 0.70
     Davidson diagonalization with overlap
     ethr =  2.72E-12,  avg # of iterations =  4.0

     total cpu time spent up to now is       46.4 secs

     total energy              =    -915.34573550 Ry
     Harris-Foulkes estimate   =    -915.34573550 Ry
     estimated scf accuracy    <          3.1E-09 Ry

     iteration # 25     ecut=    30.00 Ry     beta= 0.70
     Davidson diagonalization with overlap
     ethr =  2.72E-12,  avg # of iterations =  1.0

     total cpu time spent up to now is       47.0 secs

     total energy              =    -915.34573550 Ry
     Harris-Foulkes estimate   =    -915.34573550 Ry
     estimated scf accuracy    <          1.9E-09 Ry

     iteration # 26     ecut=    30.00 Ry     beta= 0.70
     Davidson diagonalization with overlap
     ethr =  1.69E-12,  avg # of iterations =  4.0

     total cpu time spent up to now is       48.2 secs

     total energy              =    -915.34573550 Ry
     Harris-Foulkes estimate   =    -915.34573550 Ry
     estimated scf accuracy    <          1.9E-09 Ry

     iteration # 27     ecut=    30.00 Ry     beta= 0.70
     Davidson diagonalization with overlap
     ethr =  1.69E-12,  avg # of iterations =  3.0

     total cpu time spent up to now is       48.9 secs

     total energy              =    -915.34573550 Ry
     Harris-Foulkes estimate   =    -915.34573550 Ry
     estimated scf accuracy    <          1.1E-10 Ry

     iteration # 28     ecut=    30.00 Ry     beta= 0.70
     Davidson diagonalization with overlap
     ethr =  1.00E-13,  avg # of iterations =  4.0

     total cpu time spent up to now is       49.7 secs

     End of self-consistent calculation

          k = 0.0000 0.0000 0.0000 (  3731 PWs)   bands (ev):

   -60.1365 -60.1312 -60.1041 -60.0912 -35.1270 -35.1132 -35.0682 -35.0521
   -34.7537 -34.6987 -34.5998 -34.5789 -34.5777 -34.5273 -34.5171 -34.4889
   -13.8458 -13.7133 -12.4894 -12.4605 -12.0590 -11.8942 -11.2095 -11.1781
   -10.9979 -10.9587  -0.0710  -0.0286   0.0093   0.0943   0.8917   1.1470
     1.4843   1.8229   1.9101   2.1022   2.5403   2.6287   3.0125   3.1124
     3.1651   3.3284   3.3877   3.5177   3.5387   3.5781   3.7237   3.9923
     3.9976   4.0340   4.5570   4.6509   4.8169   4.8235   4.8296   5.1351

          k = 0.0000 0.2616 0.0000 (  3738 PWs)   bands (ev):

   -60.1494 -60.1330 -60.1048 -60.0958 -35.1444 -35.1349 -35.1105 -35.0970
   -34.7325 -34.6689 -34.6079 -34.5895 -34.5789 -34.5177 -34.4857 -34.4760
   -13.8183 -13.6958 -12.4727 -12.4580 -12.0426 -11.8810 -11.2119 -11.1535
   -10.9664 -10.9013  -0.0863  -0.0494  -0.0106   0.1033   0.3868   0.5448
     1.3196   1.3729   1.4012   1.5895   2.3260   2.3773   2.6492   3.0332
     3.1965   3.2608   3.4215   3.7373   3.8356   4.0522   4.1016   4.2470
     4.3003   4.4450   4.5630   4.7330   4.7838   4.9456   5.0992   5.1488

          k = 0.3560 0.0000 0.0000 (  3744 PWs)   bands (ev):

   -60.1428 -60.1235 -60.1145 -60.0922 -35.1109 -35.1070 -35.0758 -35.0755
   -34.7514 -34.7251 -34.7013 -34.6958 -34.5641 -34.5541 -34.5236 -34.5003
   -13.1033 -12.9612 -12.3124 -12.2376 -11.9327 -11.8339 -11.1256 -11.0753
   -11.0162 -10.9793  -0.6089  -0.4664   0.2627   0.7220   1.0362   1.0820
     1.0909   1.3066   1.6324   1.7292   1.8818   2.0225   2.5340   2.6880
     2.8876   2.9488   3.0607   3.1459   3.5413   3.6412   3.7598   3.8093
     3.8542   4.0028   4.5305   4.6289   4.8370   4.9728   5.0487   5.1481

          k = 0.3560 0.2616 0.0000 (  3760 PWs)   bands (ev):

   -60.1530 -60.1324 -60.1222 -60.1142 -35.1255 -35.1251 -35.1056 -35.1004
   -34.7476 -34.7162 -34.7006 -34.6851 -34.5807 -34.5588 -34.5287 -34.5169
   -13.0798 -12.9402 -12.3060 -12.2384 -11.9116 -11.8245 -11.1034 -11.0428
   -10.9821 -10.9127  -0.6139  -0.4817   0.2323   0.6234   0.6857   0.7029
     0.9746   1.0063   1.4254   1.5132   1.7172   1.8959   2.2753   2.4724
     2.5643   2.9440   3.0204   3.0562   3.0777   3.3884   3.6669   4.1475
     4.2994   4.4531   4.6854   4.8541   5.0374   5.1097   5.2258   5.3253

     highest occupied level (ev):     5.3253

!    total energy              =    -915.34573550 Ry
     Harris-Foulkes estimate   =    -915.34573550 Ry
     estimated scf accuracy    <          8.0E-11 Ry

     The total energy is the sum of the following terms:

     one-electron contribution =    -599.43924808 Ry
     hartree contribution      =     340.73030921 Ry
     xc contribution           =    -174.15179487 Ry
     ewald contribution        =    -482.48500175 Ry

     convergence has been achieved in  28 iterations

     Forces acting on atoms (cartesian axes, Ry/au):

     atom    1 type  1   force =    -0.00000000    0.12636405    0.07801464
     atom    2 type  1   force =     0.00000000   -0.12636405   -0.07801464
     atom    3 type  1   force =     0.00000000   -0.12636405    0.07801464
     atom    4 type  1   force =     0.00000000    0.12636405   -0.07801464
     atom    5 type  2   force =     0.00000000    0.05588705   -0.01867582
     atom    6 type  2   force =     0.00000000   -0.05588705    0.01867582
     atom    7 type  2   force =     0.00000000   -0.05588705   -0.01867582
     atom    8 type  2   force =     0.00000000    0.05588705    0.01867582
     atom    9 type  2   force =    -0.00000000   -0.31129413   -0.00109219
     atom   10 type  2   force =     0.00000000    0.31129413    0.00109219
     atom   11 type  2   force =     0.00000000    0.31129413   -0.00109219
     atom   12 type  2   force =     0.00000000   -0.13806836    0.00000000
     atom   13 type  2   force =    -0.00000000    0.13806836   -0.00000000
     atom   14 type  2   force =     0.00000000   -0.31129413    0.00109219

     Total force =     0.726534     Total SCF correction =     0.000026


     Computing stress (Cartesian axis) and pressure

          total   stress  (Ry/bohr**3)                   (kbar)     P=-1700.14
  -0.01171151   0.00000000   0.00000000      -1722.82      0.00      0.00
   0.00000000  -0.01110451   0.00000000          0.00  -1633.53      0.00
   0.00000000   0.00000000  -0.01185599          0.00      0.00  -1744.08


     number of scf cycles    =   2
     number of bfgs steps    =   1

     enthalpy old            =    -911.7802194724 Ry
     enthalpy new            =    -915.3457355022 Ry

     CASE: enthalpy_new < enthalpy_old

     new trust radius        =       0.7268774338 bohr
     new conv_thr            =            1.0E-10 Ry

     new unit-cell volume =    810.62298 a.u.^3 (   120.12193 Ang^3 )
     density =      5.02854 g/cm^3

CELL_PARAMETERS (alat=  6.74981256)
   0.833892086   0.000000000   0.000000000
   0.000000000   1.180138705   0.000000000
   0.000000000   0.000000000   2.678556853

ATOMIC_POSITIONS (crystal)
V       -0.000000000   0.414592770   0.652508371
V        0.500000190   0.585407610   0.847492201
V        0.500000190   0.585407610   0.152508181
V        0.000000000   0.414592770   0.347492009
O        0.500000190   0.495948246   0.679828419
O        0.000000000   0.504052135   0.820172151
O        0.000000000   0.504052135   0.179828229
O        0.500000190   0.495948246   0.320171961
O       -0.000000000   0.022328977   0.356197227
O        0.500000190   0.977671404   0.143802965
O        0.500000190   0.977671404   0.856197416
O        0.500000190   0.485392907   0.000000000
O       -0.000000000   0.514607474   0.500000190
O       -0.000000000   0.022328977   0.643803156



     Writing output data file v2o5.save/
     NEW-OLD atomic charge density approx. for the potential

     Check: negative core charge=   -0.000584

     negative rho (up, down):  2.640E-02 0.000E+00
     extrapolated charge   71.69852, renormalised to  112.00000

     total cpu time spent up to now is       51.2 secs

     Self-consistent Calculation

     iteration #  1     ecut=    30.00 Ry     beta= 0.70
     Davidson diagonalization with overlap
     c_bands:  3 eigenvalues not converged
     c_bands:  5 eigenvalues not converged
     ethr =  1.00E-06,  avg # of iterations = 19.0

     total cpu time spent up to now is       56.2 secs

     total energy              =    -657.24099848 Ry
     Harris-Foulkes estimate   =   -1138.55607824 Ry
     estimated scf accuracy    <     296.57473817 Ry

     iteration #  2     ecut=    30.00 Ry     beta= 0.70
     Davidson diagonalization with overlap
     ethr =  1.00E-02,  avg # of iterations =  9.5

     total cpu time spent up to now is       58.9 secs

     total energy              =    -803.10367184 Ry
     Harris-Foulkes estimate   =   -1286.82337654 Ry
     estimated scf accuracy    <    1317.17440954 Ry

     iteration #  3     ecut=    30.00 Ry     beta= 0.70
     Davidson diagonalization with overlap
     ethr =  1.00E-02,  avg # of iterations =  8.8

     total cpu time spent up to now is       61.1 secs

     total energy              =    -925.84391878 Ry
     Harris-Foulkes estimate   =    -948.48751662 Ry
     estimated scf accuracy    <      81.92510191 Ry

     iteration #  4     ecut=    30.00 Ry     beta= 0.70
     Davidson diagonalization with overlap
     ethr =  1.00E-02,  avg # of iterations =  4.0

     total cpu time spent up to now is       62.2 secs

     total energy              =    -915.80155226 Ry
     Harris-Foulkes estimate   =    -929.51384141 Ry
     estimated scf accuracy    <      36.53060086 Ry

     iteration #  5     ecut=    30.00 Ry     beta= 0.70
     Davidson diagonalization with overlap
     ethr =  1.00E-02,  avg # of iterations =  4.8

     total cpu time spent up to now is       63.5 secs

     total energy              =    -917.25577311 Ry
     Harris-Foulkes estimate   =    -919.01464200 Ry
     estimated scf accuracy    <       6.99922339 Ry

     iteration #  6     ecut=    30.00 Ry     beta= 0.70
     Davidson diagonalization with overlap
     ethr =  6.25E-03,  avg # of iterations =  3.2

     negative rho (up, down):  4.039E-03 0.000E+00

     total cpu time spent up to now is       64.1 secs

     total energy              =    -916.29680115 Ry
     Harris-Foulkes estimate   =    -917.69232117 Ry
     estimated scf accuracy    <       3.43622974 Ry

     iteration #  7     ecut=    30.00 Ry     beta= 0.70
     Davidson diagonalization with overlap
     ethr =  3.07E-03,  avg # of iterations =  6.0

     negative rho (up, down):  3.889E-03 0.000E+00

     total cpu time spent up to now is       65.4 secs

     total energy              =    -917.66678462 Ry
     Harris-Foulkes estimate   =    -917.67790029 Ry
     estimated scf accuracy    <       3.05566613 Ry

     iteration #  8     ecut=    30.00 Ry     beta= 0.70
     Davidson diagonalization with overlap
     ethr =  2.73E-03,  avg # of iterations =  1.0

     negative rho (up, down):  3.494E-03 0.000E+00

     total cpu time spent up to now is       65.8 secs

     total energy              =    -917.57288978 Ry
     Harris-Foulkes estimate   =    -917.67125772 Ry
     estimated scf accuracy    <       3.02409831 Ry

     iteration #  9     ecut=    30.00 Ry     beta= 0.70
     Davidson diagonalization with overlap
     ethr =  2.70E-03,  avg # of iterations =  1.0

     total cpu time spent up to now is       66.2 secs

     total energy              =    -916.27671505 Ry
     Harris-Foulkes estimate   =    -917.57660727 Ry
     estimated scf accuracy    <       2.70156912 Ry

     iteration # 10     ecut=    30.00 Ry     beta= 0.70
     Davidson diagonalization with overlap
     ethr =  2.41E-03,  avg # of iterations =  4.0

     total cpu time spent up to now is       67.0 secs

     total energy              =    -917.33293677 Ry
     Harris-Foulkes estimate   =    -917.95008800 Ry
     estimated scf accuracy    <       3.02333232 Ry

     iteration # 11     ecut=    30.00 Ry     beta= 0.70
     Davidson diagonalization with overlap
     ethr =  2.41E-03,  avg # of iterations =  1.0

     total cpu time spent up to now is       67.5 secs

     total energy              =    -917.27725318 Ry
     Harris-Foulkes estimate   =    -917.39132789 Ry
     estimated scf accuracy    <       1.53649725 Ry

     iteration # 12     ecut=    30.00 Ry     beta= 0.70
     Davidson diagonalization with overlap
     ethr =  1.37E-03,  avg # of iterations =  1.0

     total cpu time spent up to now is       67.9 secs

     total energy              =    -917.06392462 Ry
     Harris-Foulkes estimate   =    -917.30638748 Ry
     estimated scf accuracy    <       1.25027484 Ry

     iteration # 13     ecut=    30.00 Ry     beta= 0.70
     Davidson diagonalization with overlap
     ethr =  1.12E-03,  avg # of iterations =  4.8

     total cpu time spent up to now is       68.7 secs

     total energy              =    -917.26970899 Ry
     Harris-Foulkes estimate   =    -917.27804807 Ry
     estimated scf accuracy    <       0.04380294 Ry

     iteration # 14     ecut=    30.00 Ry     beta= 0.70
     Davidson diagonalization with overlap
     ethr =  3.91E-05,  avg # of iterations =  5.0

     total cpu time spent up to now is       69.9 secs

     total energy              =    -917.29546396 Ry
     Harris-Foulkes estimate   =    -917.29764130 Ry
     estimated scf accuracy    <       0.01147881 Ry

     iteration # 15     ecut=    30.00 Ry     beta= 0.70
     Davidson diagonalization with overlap
     ethr =  1.02E-05,  avg # of iterations =  5.0

     total cpu time spent up to now is       70.9 secs

     total energy              =    -917.29766428 Ry
     Harris-Foulkes estimate   =    -917.29827216 Ry
     estimated scf accuracy    <       0.02488553 Ry

     iteration # 16     ecut=    30.00 Ry     beta= 0.70
     Davidson diagonalization with overlap
     ethr =  1.02E-05,  avg # of iterations =  1.0

     total cpu time spent up to now is       71.3 secs

     total energy              =    -917.29795122 Ry
     Harris-Foulkes estimate   =    -917.29776074 Ry
     estimated scf accuracy    <       0.02251924 Ry

     iteration # 17     ecut=    30.00 Ry     beta= 0.70
     Davidson diagonalization with overlap
     ethr =  1.02E-05,  avg # of iterations =  1.0

     total cpu time spent up to now is       71.8 secs

     total energy              =    -917.29284089 Ry
     Harris-Foulkes estimate   =    -917.29823013 Ry
     estimated scf accuracy    <       0.02271866 Ry

     iteration # 18     ecut=    30.00 Ry     beta= 0.70
     Davidson diagonalization with overlap
     ethr =  1.02E-05,  avg # of iterations =  5.0

     total cpu time spent up to now is       72.7 secs

     total energy              =    -917.29489687 Ry
     Harris-Foulkes estimate   =    -917.29485500 Ry
     estimated scf accuracy    <       0.00034141 Ry

     iteration # 19     ecut=    30.00 Ry     beta= 0.70
     Davidson diagonalization with overlap
     ethr =  3.05E-07,  avg # of iterations =  4.5

     total cpu time spent up to now is       73.6 secs

     total energy              =    -917.29494089 Ry
     Harris-Foulkes estimate   =    -917.29499469 Ry
     estimated scf accuracy    <       0.00061465 Ry

     iteration # 20     ecut=    30.00 Ry     beta= 0.70
     Davidson diagonalization with overlap
     ethr =  3.05E-07,  avg # of iterations =  1.0

     total cpu time spent up to now is       74.0 secs

     total energy              =    -917.29487936 Ry
     Harris-Foulkes estimate   =    -917.29494715 Ry
     estimated scf accuracy    <       0.00047402 Ry

     iteration # 21     ecut=    30.00 Ry     beta= 0.70
     Davidson diagonalization with overlap
     ethr =  3.05E-07,  avg # of iterations =  4.2

     total cpu time spent up to now is       74.7 secs

     total energy              =    -917.29487908 Ry
     Harris-Foulkes estimate   =    -917.29490602 Ry
     estimated scf accuracy    <       0.00008847 Ry

     iteration # 22     ecut=    30.00 Ry     beta= 0.70
     Davidson diagonalization with overlap
     ethr =  7.90E-08,  avg # of iterations =  5.2

     total cpu time spent up to now is       76.0 secs

     total energy              =    -917.29490748 Ry
     Harris-Foulkes estimate   =    -917.29491865 Ry
     estimated scf accuracy    <       0.00005103 Ry

     iteration # 23     ecut=    30.00 Ry     beta= 0.70
     Davidson diagonalization with overlap
     ethr =  4.56E-08,  avg # of iterations =  3.8

     total cpu time spent up to now is       76.5 secs

     total energy              =    -917.29490914 Ry
     Harris-Foulkes estimate   =    -917.29491026 Ry
     estimated scf accuracy    <       0.00001003 Ry

     iteration # 24     ecut=    30.00 Ry     beta= 0.70
     Davidson diagonalization with overlap
     ethr =  8.95E-09,  avg # of iterations =  5.0

     total cpu time spent up to now is       77.7 secs

     total energy              =    -917.29491120 Ry
     Harris-Foulkes estimate   =    -917.29491135 Ry
     estimated scf accuracy    <       0.00000031 Ry

     iteration # 25     ecut=    30.00 Ry     beta= 0.70
     Davidson diagonalization with overlap
     ethr =  2.76E-10,  avg # of iterations =  5.2

     total cpu time spent up to now is       79.2 secs

     total energy              =    -917.29491143 Ry
     Harris-Foulkes estimate   =    -917.29491164 Ry
     estimated scf accuracy    <       0.00000148 Ry

     iteration # 26     ecut=    30.00 Ry     beta= 0.70
     Davidson diagonalization with overlap
     ethr =  2.76E-10,  avg # of iterations =  4.0

     total cpu time spent up to now is       80.2 secs

     total energy              =    -917.29491141 Ry
     Harris-Foulkes estimate   =    -917.29491148 Ry
     estimated scf accuracy    <       0.00000053 Ry

     iteration # 27     ecut=    30.00 Ry     beta= 0.70
     Davidson diagonalization with overlap
     ethr =  2.76E-10,  avg # of iterations =  3.8

     total cpu time spent up to now is       80.8 secs

     total energy              =    -917.29491140 Ry
     Harris-Foulkes estimate   =    -917.29491143 Ry
     estimated scf accuracy    <       0.00000017 Ry

     iteration # 28     ecut=    30.00 Ry     beta= 0.70
     Davidson diagonalization with overlap
     ethr =  1.54E-10,  avg # of iterations =  3.8

     total cpu time spent up to now is       81.4 secs

     total energy              =    -917.29491142 Ry
     Harris-Foulkes estimate   =    -917.29491142 Ry
     estimated scf accuracy    <       0.00000002 Ry

     iteration # 29     ecut=    30.00 Ry     beta= 0.70
     Davidson diagonalization with overlap
     ethr =  1.61E-11,  avg # of iterations =  4.8

     total cpu time spent up to now is       82.5 secs

     total energy              =    -917.29491143 Ry
     Harris-Foulkes estimate   =    -917.29491143 Ry
     estimated scf accuracy    <          3.6E-09 Ry

     iteration # 30     ecut=    30.00 Ry     beta= 0.70
     Davidson diagonalization with overlap
     ethr =  3.23E-12,  avg # of iterations =  4.0

     total cpu time spent up to now is       83.1 secs

     total energy              =    -917.29491143 Ry
     Harris-Foulkes estimate   =    -917.29491143 Ry
     estimated scf accuracy    <          4.9E-10 Ry

     iteration # 31     ecut=    30.00 Ry     beta= 0.70
     Davidson diagonalization with overlap
     ethr =  4.35E-13,  avg # of iterations =  5.5

     total cpu time spent up to now is       84.7 secs

     total energy              =    -917.29491143 Ry
     Harris-Foulkes estimate   =    -917.29491143 Ry
     estimated scf accuracy    <          2.2E-09 Ry

     iteration # 32     ecut=    30.00 Ry     beta= 0.70
     Davidson diagonalization with overlap
     ethr =  4.35E-13,  avg # of iterations =  1.0

     total cpu time spent up to now is       85.2 secs

     total energy              =    -917.29491143 Ry
     Harris-Foulkes estimate   =    -917.29491143 Ry
     estimated scf accuracy    <          2.2E-09 Ry

     iteration # 33     ecut=    30.00 Ry     beta= 0.70
     Davidson diagonalization with overlap
     ethr =  4.35E-13,  avg # of iterations =  4.0

     total cpu time spent up to now is       86.3 secs

     total energy              =    -917.29491143 Ry
     Harris-Foulkes estimate   =    -917.29491143 Ry
     estimated scf accuracy    <          3.6E-10 Ry

     iteration # 34     ecut=    30.00 Ry     beta= 0.70
     Davidson diagonalization with overlap
     ethr =  3.26E-13,  avg # of iterations =  3.5

     total cpu time spent up to now is       87.0 secs

     total energy              =    -917.29491143 Ry
     Harris-Foulkes estimate   =    -917.29491143 Ry
     estimated scf accuracy    <          1.1E-10 Ry

     iteration # 35     ecut=    30.00 Ry     beta= 0.70
     Davidson diagonalization with overlap
     ethr =  1.00E-13,  avg # of iterations =  4.8

     total cpu time spent up to now is       88.0 secs

     End of self-consistent calculation

          k = 0.0000 0.0000 0.0000 (  3731 PWs)   bands (ev):

   -54.7035 -54.6818 -54.5025 -54.4604 -30.1802 -29.9254 -29.6950 -29.6718
   -29.3862 -29.2598 -29.2383 -29.0945 -28.5196 -28.4878 -28.4575 -28.4318
   -11.2296 -10.8897 -10.5933 -10.4824  -8.0093  -7.7379  -5.9764  -5.8181
    -5.2760  -5.0639   1.3890   1.5387   2.1974   2.3687   2.9312   3.3863
     4.6032   4.6263   5.0904   5.1450   5.8025   6.1119   6.6363   6.6426
     6.8302   6.8735   6.9513   7.1007   8.1481   8.7954   8.9511   8.9889
     9.1618   9.4527   9.6720   9.6838   9.9359  10.7596  10.8636  11.1583

          k = 0.0000 0.2825 0.0000 (  3738 PWs)   bands (ev):

   -54.7038 -54.7001 -54.4939 -54.4687 -30.1760 -29.9164 -29.6932 -29.6750
   -29.3889 -29.2560 -29.2446 -29.0920 -28.5350 -28.4964 -28.4758 -28.4460
   -11.1926 -10.8634 -10.5805 -10.4805  -7.9883  -7.7208  -5.8824  -5.6886
    -5.1291  -4.8844   1.4080   1.5134   2.1757   2.3745   2.5495   2.8567
     4.5239   4.5562   4.5938   4.6882   5.7617   6.0805   6.4554   6.4997
     6.5068   6.7364   6.8229   7.0531   7.9111   7.9664   8.7389   8.8689
     9.4250   9.5941   9.9151  10.0394  10.4141  10.5316  10.6070  11.1477

          k = 0.3997 0.0000 0.0000 (  3744 PWs)   bands (ev):

   -54.6211 -54.6090 -54.5302 -54.5091 -30.2881 -30.2044 -30.1540 -30.1340
   -29.3994 -29.3024 -29.2407 -29.0576 -28.4899 -28.4707 -28.4622 -28.4446
    -9.7659  -9.2820  -9.2648  -8.8924  -7.5430  -7.4030  -5.6357  -5.4624
    -5.2680  -5.0856   0.6809   1.0355   1.4906   1.8312   2.7580   2.7752
     3.0455   3.2399   3.8282   4.6715   5.3525   5.4655   5.8006   6.0715
     6.1778   7.0615   7.3224   8.0150   8.2515   8.3466   8.6637   8.7942
     9.0235   9.2229   9.2540   9.5340   9.8356  10.2973  10.3791  11.0222

          k = 0.3997 0.2825 0.0000 (  3760 PWs)   bands (ev):

   -54.6399 -54.6130 -54.5292 -54.5153 -30.2909 -30.2001 -30.1538 -30.1322
   -29.4026 -29.3024 -29.2408 -29.0638 -28.4967 -28.4743 -28.4729 -28.4543
    -9.7378  -9.2602  -9.2592  -8.8925  -7.5190  -7.3965  -5.5120  -5.3211
    -5.1148  -4.9030   0.6694   1.0212   1.4716   1.8012   2.4674   2.6537
     2.8443   2.9255   3.8370   4.4358   4.9508   5.3381   5.5413   5.8287
     5.9556   6.9922   7.0048   7.6039   8.0255   8.2601   8.3022   8.4398
     9.3016   9.3712   9.3913   9.4498  10.1094  10.3309  10.5832  11.0105

     highest occupied level (ev):    11.1583

!    total energy              =    -917.29491143 Ry
     Harris-Foulkes estimate   =    -917.29491143 Ry
     estimated scf accuracy    <          1.8E-11 Ry

     The total energy is the sum of the following terms:

     one-electron contribution =    -498.45207486 Ry
     hartree contribution      =     310.51298956 Ry
     xc contribution           =    -177.72638011 Ry
     ewald contribution        =    -551.62944602 Ry

     convergence has been achieved in  35 iterations

     Forces acting on atoms (cartesian axes, Ry/au):

     atom    1 type  1   force =     0.00000000   -0.55774306   -0.12396191
     atom    2 type  1   force =     0.00000000    0.55774306    0.12396191
     atom    3 type  1   force =    -0.00000000    0.55774306   -0.12396191
     atom    4 type  1   force =    -0.00000000   -0.55774306    0.12396191
     atom    5 type  2   force =    -0.00000000    0.15211762   -0.20591594
     atom    6 type  2   force =     0.00000000   -0.15211762    0.20591594
     atom    7 type  2   force =     0.00000000   -0.15211762   -0.20591594
     atom    8 type  2   force =    -0.00000000    0.15211762    0.20591594
     atom    9 type  2   force =     0.00000000    0.02071881    0.01482522
     atom   10 type  2   force =    -0.00000000   -0.02071881   -0.01482522
     atom   11 type  2   force =    -0.00000000   -0.02071881    0.01482522
     atom   12 type  2   force =     0.00000000   -0.30812056    0.00000000
     atom   13 type  2   force =    -0.00000000    0.30812056    0.00000000
     atom   14 type  2   force =     0.00000000    0.02071881   -0.01482522

     Total force =     1.326806     Total SCF correction =     0.000012


     Computing stress (Cartesian axis) and pressure

          total   stress  (Ry/bohr**3)                   (kbar)     P=   88.45
   0.00672408   0.00000000   0.00000000        989.15      0.00      0.00
   0.00000000  -0.01054318   0.00000000          0.00  -1550.96      0.00
   0.00000000   0.00000000   0.00562291          0.00      0.00    827.16


     number of scf cycles    =   3
     number of bfgs steps    =   2

     enthalpy old            =    -915.3457355022 Ry
     enthalpy new            =    -917.2949114255 Ry

     CASE: enthalpy_new < enthalpy_old

     new trust radius        =       0.8000000000 bohr
     new conv_thr            =            1.0E-10 Ry

     new unit-cell volume =    728.71637 a.u.^3 (   107.98462 Ang^3 )
     density =      5.59374 g/cm^3

CELL_PARAMETERS (alat=  6.74981256)
   0.857721641   0.000000000   0.000000000
   0.000000000   1.014339061   0.000000000
   0.000000000   0.000000000   2.723666118

ATOMIC_POSITIONS (crystal)
V        0.000000000   0.399959931   0.651646343
V        0.500000238   0.600040546   0.848354373
V        0.500000238   0.600040546   0.151646105
V       -0.000000000   0.399959931   0.348354133
O        0.500000238   0.506332616   0.674589575
O        0.000000000   0.493667862   0.825411139
O        0.000000000   0.493667862   0.174589338
O        0.500000238   0.506332616   0.325410900
O       -0.000000000   0.000286992   0.356747540
O        0.500000238   0.999713485   0.143252699
O        0.500000238   0.999713485   0.856747777
O        0.500000238   0.462960701   0.000000000
O       -0.000000000   0.537039776   0.500000238
O       -0.000000000   0.000286992   0.643252939



     Writing output data file v2o5.save/
     NEW-OLD atomic charge density approx. for the potential

     Check: negative core charge=   -0.000479
     extrapolated charge   99.41184, renormalised to  112.00000

     total cpu time spent up to now is       89.4 secs

     Self-consistent Calculation

     iteration #  1     ecut=    30.00 Ry     beta= 0.70
     Davidson diagonalization with overlap
     c_bands:  1 eigenvalues not converged
     c_bands:  1 eigenvalues not converged
     ethr =  1.00E-06,  avg # of iterations = 19.8

     total cpu time spent up to now is       94.3 secs

     total energy              =    -849.90973543 Ry
     Harris-Foulkes estimate   =    -963.52356602 Ry
     estimated scf accuracy    <      71.31768751 Ry

     iteration #  2     ecut=    30.00 Ry     beta= 0.70
     Davidson diagonalization with overlap
     ethr =  1.00E-02,  avg # of iterations =  5.5

     total cpu time spent up to now is       96.1 secs

     total energy              =    -893.06572458 Ry
     Harris-Foulkes estimate   =   -1007.70125855 Ry
     estimated scf accuracy    <     313.85615123 Ry

     iteration #  3     ecut=    30.00 Ry     beta= 0.70
     Davidson diagonalization with overlap
     ethr =  1.00E-02,  avg # of iterations =  6.2

     total cpu time spent up to now is       97.7 secs

     total energy              =    -922.31604851 Ry
     Harris-Foulkes estimate   =    -930.98803441 Ry
     estimated scf accuracy    <      37.61245253 Ry

     iteration #  4     ecut=    30.00 Ry     beta= 0.70
     Davidson diagonalization with overlap
     ethr =  1.00E-02,  avg # of iterations =  4.0

     total cpu time spent up to now is       98.3 secs

     total energy              =    -920.79745983 Ry
     Harris-Foulkes estimate   =    -924.45834316 Ry
     estimated scf accuracy    <      19.35178414 Ry

     iteration #  5     ecut=    30.00 Ry     beta= 0.70
     Davidson diagonalization with overlap
     ethr =  1.00E-02,  avg # of iterations =  1.2

     total cpu time spent up to now is       98.9 secs

     total energy              =    -918.45356626 Ry
     Harris-Foulkes estimate   =    -921.18796201 Ry
     estimated scf accuracy    <      11.42223426 Ry

     iteration #  6     ecut=    30.00 Ry     beta= 0.70
     Davidson diagonalization with overlap
     ethr =  1.00E-02,  avg # of iterations =  1.5

     negative rho (up, down):  2.451E-04 0.000E+00

     total cpu time spent up to now is       99.3 secs

     total energy              =    -917.09620551 Ry
     Harris-Foulkes estimate   =    -918.84701918 Ry
     estimated scf accuracy    <       5.90365114 Ry

     iteration #  7     ecut=    30.00 Ry     beta= 0.70
     Davidson diagonalization with overlap
     ethr =  5.27E-03,  avg # of iterations =  3.0

     total cpu time spent up to now is      100.2 secs

     total energy              =    -918.32082213 Ry
     Harris-Foulkes estimate   =    -918.37933871 Ry
     estimated scf accuracy    <       0.65092846 Ry

     iteration #  8     ecut=    30.00 Ry     beta= 0.70
     Davidson diagonalization with overlap
     ethr =  5.81E-04,  avg # of iterations =  1.2

     total cpu time spent up to now is      100.6 secs

     total energy              =    -918.19565072 Ry
     Harris-Foulkes estimate   =    -918.33765525 Ry
     estimated scf accuracy    <       0.51236145 Ry

     iteration #  9     ecut=    30.00 Ry     beta= 0.70
     Davidson diagonalization with overlap
     ethr =  4.57E-04,  avg # of iterations =  4.0

     total cpu time spent up to now is      101.6 secs

     total energy              =    -918.23487529 Ry
     Harris-Foulkes estimate   =    -918.34569493 Ry
     estimated scf accuracy    <       0.60265537 Ry

     iteration # 10     ecut=    30.00 Ry     beta= 0.70
     Davidson diagonalization with overlap
     ethr =  4.57E-04,  avg # of iterations =  1.0

     total cpu time spent up to now is      102.0 secs

     total energy              =    -918.07267330 Ry
     Harris-Foulkes estimate   =    -918.24570198 Ry
     estimated scf accuracy    <       0.34871767 Ry

     iteration # 11     ecut=    30.00 Ry     beta= 0.70
     Davidson diagonalization with overlap
     ethr =  3.11E-04,  avg # of iterations =  4.0

     total cpu time spent up to now is      103.1 secs

     total energy              =    -918.20566125 Ry
     Harris-Foulkes estimate   =    -918.22987520 Ry
     estimated scf accuracy    <       0.15898371 Ry

     iteration # 12     ecut=    30.00 Ry     beta= 0.70
     Davidson diagonalization with overlap
     ethr =  1.42E-04,  avg # of iterations =  1.0

     total cpu time spent up to now is      103.6 secs

     total energy              =    -918.19139699 Ry
     Harris-Foulkes estimate   =    -918.20805637 Ry
     estimated scf accuracy    <       0.09527462 Ry

     iteration # 13     ecut=    30.00 Ry     beta= 0.70
     Davidson diagonalization with overlap
     ethr =  8.51E-05,  avg # of iterations =  3.5

     total cpu time spent up to now is      104.3 secs

     total energy              =    -918.19731957 Ry
     Harris-Foulkes estimate   =    -918.20027177 Ry
     estimated scf accuracy    <       0.01416483 Ry

     iteration # 14     ecut=    30.00 Ry     beta= 0.70
     Davidson diagonalization with overlap
     ethr =  1.26E-05,  avg # of iterations =  4.0

     total cpu time spent up to now is      105.2 secs

     total energy              =    -918.20155907 Ry
     Harris-Foulkes estimate   =    -918.20162768 Ry
     estimated scf accuracy    <       0.00016699 Ry

     iteration # 15     ecut=    30.00 Ry     beta= 0.70
     Davidson diagonalization with overlap
     ethr =  1.49E-07,  avg # of iterations =  5.0

     total cpu time spent up to now is      106.6 secs

     total energy              =    -918.20171944 Ry
     Harris-Foulkes estimate   =    -918.20171564 Ry
     estimated scf accuracy    <       0.00007151 Ry

     iteration # 16     ecut=    30.00 Ry     beta= 0.70
     Davidson diagonalization with overlap
     ethr =  6.38E-08,  avg # of iterations =  1.0

     total cpu time spent up to now is      107.0 secs

     total energy              =    -918.20169502 Ry
     Harris-Foulkes estimate   =    -918.20172022 Ry
     estimated scf accuracy    <       0.00008287 Ry

     iteration # 17     ecut=    30.00 Ry     beta= 0.70
     Davidson diagonalization with overlap
     ethr =  6.38E-08,  avg # of iterations =  2.5

     total cpu time spent up to now is      107.6 secs

     total energy              =    -918.20169431 Ry
     Harris-Foulkes estimate   =    -918.20169996 Ry
     estimated scf accuracy    <       0.00001923 Ry

     iteration # 18     ecut=    30.00 Ry     beta= 0.70
     Davidson diagonalization with overlap
     ethr =  1.72E-08,  avg # of iterations =  4.0

     total cpu time spent up to now is      108.7 secs

     total energy              =    -918.20170040 Ry
     Harris-Foulkes estimate   =    -918.20170094 Ry
     estimated scf accuracy    <       0.00000138 Ry

     iteration # 19     ecut=    30.00 Ry     beta= 0.70
     Davidson diagonalization with overlap
     ethr =  1.23E-09,  avg # of iterations =  3.8

     total cpu time spent up to now is      109.7 secs

     total energy              =    -918.20170065 Ry
     Harris-Foulkes estimate   =    -918.20170066 Ry
     estimated scf accuracy    <       0.00000002 Ry

     iteration # 20     ecut=    30.00 Ry     beta= 0.70
     Davidson diagonalization with overlap
     ethr =  2.11E-11,  avg # of iterations =  5.0

     total cpu time spent up to now is      111.5 secs

     total energy              =    -918.20170066 Ry
     Harris-Foulkes estimate   =    -918.20170067 Ry
     estimated scf accuracy    <       0.00000003 Ry

     iteration # 21     ecut=    30.00 Ry     beta= 0.70
     Davidson diagonalization with overlap
     ethr =  2.11E-11,  avg # of iterations =  1.0

     total cpu time spent up to now is      111.9 secs

     total energy              =    -918.20170066 Ry
     Harris-Foulkes estimate   =    -918.20170066 Ry
     estimated scf accuracy    <       0.00000002 Ry

     iteration # 22     ecut=    30.00 Ry     beta= 0.70
     Davidson diagonalization with overlap
     ethr =  2.00E-11,  avg # of iterations =  1.2

     total cpu time spent up to now is      112.4 secs

     total energy              =    -918.20170066 Ry
     Harris-Foulkes estimate   =    -918.20170066 Ry
     estimated scf accuracy    <       0.00000001 Ry

     iteration # 23     ecut=    30.00 Ry     beta= 0.70
     Davidson diagonalization with overlap
     ethr =  1.15E-11,  avg # of iterations =  3.2

     total cpu time spent up to now is      113.1 secs

     total energy              =    -918.20170066 Ry
     Harris-Foulkes estimate   =    -918.20170066 Ry
     estimated scf accuracy    <          5.5E-09 Ry

     iteration # 24     ecut=    30.00 Ry     beta= 0.70
     Davidson diagonalization with overlap
     ethr =  4.91E-12,  avg # of iterations =  3.5

     total cpu time spent up to now is      114.1 secs

     total energy              =    -918.20170066 Ry
     Harris-Foulkes estimate   =    -918.20170066 Ry
     estimated scf accuracy    <          1.9E-10 Ry

     iteration # 25     ecut=    30.00 Ry     beta= 0.70
     Davidson diagonalization with overlap
     ethr =  1.68E-13,  avg # of iterations =  4.5

     total cpu time spent up to now is      114.9 secs

     total energy              =    -918.20170066 Ry
     Harris-Foulkes estimate   =    -918.20170066 Ry
     estimated scf accuracy    <          1.2E-10 Ry

     iteration # 26     ecut=    30.00 Ry     beta= 0.70
     Davidson diagonalization with overlap
     ethr =  1.06E-13,  avg # of iterations =  1.2

     total cpu time spent up to now is      115.5 secs

     End of self-consistent calculation

          k = 0.0000 0.0000 0.0000 (  3731 PWs)   bands (ev):

   -51.9839 -51.9575 -51.8513 -51.8184 -26.9582 -26.8141 -26.6690 -26.6087
   -26.5793 -26.5770 -26.5631 -26.4633 -26.2575 -26.2396 -26.2180 -25.9948
    -8.2967  -7.9433  -7.3113  -7.2466  -5.6156  -5.2665  -4.7790  -4.4757
    -4.4114  -4.1981   4.9918   5.1221   5.7229   5.8031   6.1234   6.7633
     7.0027   7.4280   7.5499   8.0850   8.2833   8.6217   8.6529   8.8081
     9.1344   9.2031   9.3484   9.4864   9.6253   9.7485   9.8023   9.9593
    10.0485  10.9960  11.0765  11.0865  11.1634  11.1789  11.2191  11.4954

          k = 0.0000 0.3286 0.0000 (  3738 PWs)   bands (ev):

   -51.9724 -51.9603 -51.8343 -51.8138 -26.9619 -26.8329 -26.7217 -26.6654
   -26.5995 -26.5726 -26.5599 -26.4670 -26.2512 -26.2428 -26.2213 -25.9853
    -8.0544  -7.7525  -7.2580  -7.1944  -5.3378  -5.0192  -4.3350  -4.3234
    -3.7701  -3.7077   4.7690   4.7793   4.9229   5.1136   5.5075   5.5764
     6.0234   6.2161   6.4612   6.6446   7.3211   7.5910   8.0831   8.5760
     8.7340   8.9482   9.2332   9.4138   9.5842   9.9997  10.5064  10.5843
    10.6247  10.9435  11.2295  11.5918  11.5925  11.7498  11.7512  12.3178

          k = 0.3886 0.0000 0.0000 (  3744 PWs)   bands (ev):

   -51.9241 -51.9042 -51.8695 -51.8490 -27.0439 -26.9700 -26.9510 -26.9179
   -26.6219 -26.5827 -26.5743 -26.5265 -26.3390 -26.2071 -26.2009 -26.0140
    -6.9822  -6.5061  -6.1773  -5.9272  -5.3548  -4.9500  -4.5414  -4.4574
    -4.3163  -4.1224   4.1666   4.4478   4.6708   5.3020   5.7306   5.9156
     6.0512   6.5416   6.7955   7.4777   7.5004   7.9371   8.2243   8.5021
     8.5666   8.6819   8.7081   9.1542   9.5570   9.5826   9.9029  10.3158
    10.4495  10.7131  10.7926  10.8258  11.3732  11.5588  11.6593  11.7191

          k = 0.3886 0.3286 0.0000 (  3760 PWs)   bands (ev):

   -51.9356 -51.9077 -51.8632 -51.8494 -27.0477 -26.9636 -26.9577 -26.9148
   -26.6719 -26.6198 -26.6124 -26.5508 -26.3408 -26.2074 -26.2006 -26.0159
    -6.7527  -6.3446  -6.1490  -5.9156  -5.0299  -4.7635  -4.0546  -4.0412
    -3.7668  -3.7342   4.1117   4.3120   4.4361   4.7757   4.8208   5.1636
     5.2387   5.7551   6.1895   6.4764   6.5141   7.2572   7.4095   7.8689
     7.9410   8.1523   8.4712   8.7052   8.9790   9.5102  10.3380  10.8710
    11.0025  11.0060  11.2167  11.4293  11.4465  11.6290  12.1768  12.2560

     highest occupied level (ev):    12.3178

!    total energy              =    -918.20170066 Ry
     Harris-Foulkes estimate   =    -918.20170066 Ry
     estimated scf accuracy    <          8.1E-11 Ry

     The total energy is the sum of the following terms:

     one-electron contribution =    -398.10601975 Ry
     hartree contribution      =     270.24659942 Ry
     xc contribution           =    -178.69405286 Ry
     ewald contribution        =    -611.64822747 Ry

     convergence has been achieved in  26 iterations

     Forces acting on atoms (cartesian axes, Ry/au):

     atom    1 type  1   force =     0.00000000    0.03486189    0.00441667
     atom    2 type  1   force =     0.00000000   -0.03486189   -0.00441667
     atom    3 type  1   force =    -0.00000000   -0.03486189    0.00441667
     atom    4 type  1   force =     0.00000000    0.03486189   -0.00441667
     atom    5 type  2   force =     0.00000000    0.14153029   -0.08231450
     atom    6 type  2   force =     0.00000000   -0.14153029    0.08231450
     atom    7 type  2   force =     0.00000000   -0.14153029   -0.08231450
     atom    8 type  2   force =     0.00000000    0.14153029    0.08231450
     atom    9 type  2   force =     0.00000000   -0.38818071    0.00634284
     atom   10 type  2   force =     0.00000000    0.38818071   -0.00634284
     atom   11 type  2   force =    -0.00000000    0.38818071    0.00634284
     atom   12 type  2   force =     0.00000000   -0.20280948    0.00000000
     atom   13 type  2   force =     0.00000000    0.20280948    0.00000000
     atom   14 type  2   force =     0.00000000   -0.38818071   -0.00634284

     Total force =     0.892932     Total SCF correction =     0.000020


     Computing stress (Cartesian axis) and pressure

          total   stress  (Ry/bohr**3)                   (kbar)     P=  657.99
   0.00407492   0.00000000   0.00000000        599.44      0.00      0.00
   0.00000000   0.00643607   0.00000000          0.00    946.78      0.00
   0.00000000   0.00000000   0.00290773          0.00      0.00    427.74


     number of scf cycles    =   4
     number of bfgs steps    =   3

     enthalpy old            =    -917.2949114255 Ry
     enthalpy new            =    -918.2017006606 Ry

     CASE: enthalpy_new < enthalpy_old

     new trust radius        =       0.1829663907 bohr
     new conv_thr            =            1.0E-10 Ry

     new unit-cell volume =    769.29527 a.u.^3 (   113.99780 Ang^3 )
     density =      5.29868 g/cm^3

CELL_PARAMETERS (alat=  6.74981256)
   0.876316071   0.000000000   0.000000000
   0.000000000   1.048714259   0.000000000
   0.000000000   0.000000000   2.722074301

ATOMIC_POSITIONS (crystal)
V        0.000000000   0.390363706   0.651009911
V        0.500000223   0.609636740   0.848990757
V        0.500000223   0.609636740   0.151009689
V       -0.000000000   0.390363706   0.348990533
O        0.500000223   0.517000431   0.671662726
O        0.000000000   0.483000015   0.828337941
O        0.000000000   0.483000015   0.171662504
O        0.500000223   0.517000431   0.328337719
O       -0.000000000  -0.017151671   0.356790422
O        0.500000223   1.017152116   0.143209802
O        0.500000223   1.017152116   0.856790643
O        0.500000223   0.447577616   0.000000000
O       -0.000000000   0.552422829   0.500000223
O       -0.000000000  -0.017151671   0.643210026



     Writing output data file v2o5.save/
     NEW-OLD atomic charge density approx. for the potential

     Check: negative core charge=   -0.000547
     extrapolated charge  117.90757, renormalised to  112.00000

     total cpu time spent up to now is      117.0 secs

     Self-consistent Calculation

     iteration #  1     ecut=    30.00 Ry     beta= 0.70
     Davidson diagonalization with overlap
     ethr =  1.00E-06,  avg # of iterations = 10.0

     total cpu time spent up to now is      119.6 secs

     total energy              =    -915.55962338 Ry
     Harris-Foulkes estimate   =    -901.13658395 Ry
     estimated scf accuracy    <       2.64424278 Ry

     iteration #  2     ecut=    30.00 Ry     beta= 0.70
     Davidson diagonalization with overlap
     ethr =  2.36E-03,  avg # of iterations =  8.0

     total cpu time spent up to now is      121.1 secs

     total energy              =    -912.73702399 Ry
     Harris-Foulkes estimate   =    -925.17731755 Ry
     estimated scf accuracy    <      61.74101345 Ry

     iteration #  3     ecut=    30.00 Ry     beta= 0.70
     Davidson diagonalization with overlap
     ethr =  2.36E-03,  avg # of iterations =  5.2

     total cpu time spent up to now is      122.8 secs

     total energy              =    -918.52852550 Ry
     Harris-Foulkes estimate   =    -918.71275278 Ry
     estimated scf accuracy    <       0.47466059 Ry

     iteration #  4     ecut=    30.00 Ry     beta= 0.70
     Davidson diagonalization with overlap
     ethr =  4.24E-04,  avg # of iterations =  2.0

     total cpu time spent up to now is      123.3 secs

     total energy              =    -918.52850532 Ry
     Harris-Foulkes estimate   =    -918.56182212 Ry
     estimated scf accuracy    <       0.12162463 Ry

     iteration #  5     ecut=    30.00 Ry     beta= 0.70
     Davidson diagonalization with overlap
     ethr =  1.09E-04,  avg # of iterations =  3.0

     total cpu time spent up to now is      124.0 secs

     total energy              =    -918.52944209 Ry
     Harris-Foulkes estimate   =    -918.53795951 Ry
     estimated scf accuracy    <       0.05681638 Ry

     iteration #  6     ecut=    30.00 Ry     beta= 0.70
     Davidson diagonalization with overlap
     ethr =  5.07E-05,  avg # of iterations =  1.0

     total cpu time spent up to now is      124.4 secs

     total energy              =    -918.51724169 Ry
     Harris-Foulkes estimate   =    -918.53107205 Ry
     estimated scf accuracy    <       0.04066879 Ry

     iteration #  7     ecut=    30.00 Ry     beta= 0.70
     Davidson diagonalization with overlap
     ethr =  3.63E-05,  avg # of iterations =  3.0

     total cpu time spent up to now is      125.0 secs

     total energy              =    -918.51831672 Ry
     Harris-Foulkes estimate   =    -918.52046828 Ry
     estimated scf accuracy    <       0.01050627 Ry

     iteration #  8     ecut=    30.00 Ry     beta= 0.70
     Davidson diagonalization with overlap
     ethr =  9.38E-06,  avg # of iterations =  4.0

     total cpu time spent up to now is      126.0 secs

     total energy              =    -918.52054588 Ry
     Harris-Foulkes estimate   =    -918.52069641 Ry
     estimated scf accuracy    <       0.00069268 Ry

     iteration #  9     ecut=    30.00 Ry     beta= 0.70
     Davidson diagonalization with overlap
     ethr =  6.18E-07,  avg # of iterations =  3.0

     total cpu time spent up to now is      126.7 secs

     total energy              =    -918.52047850 Ry
     Harris-Foulkes estimate   =    -918.52059478 Ry
     estimated scf accuracy    <       0.00032479 Ry

     iteration # 10     ecut=    30.00 Ry     beta= 0.70
     Davidson diagonalization with overlap
     ethr =  2.90E-07,  avg # of iterations =  4.0

     total cpu time spent up to now is      127.7 secs

     total energy              =    -918.52052808 Ry
     Harris-Foulkes estimate   =    -918.52053562 Ry
     estimated scf accuracy    <       0.00003396 Ry

     iteration # 11     ecut=    30.00 Ry     beta= 0.70
     Davidson diagonalization with overlap
     ethr =  3.03E-08,  avg # of iterations =  4.0

     total cpu time spent up to now is      128.5 secs

     total energy              =    -918.52053459 Ry
     Harris-Foulkes estimate   =    -918.52053548 Ry
     estimated scf accuracy    <       0.00000245 Ry

     iteration # 12     ecut=    30.00 Ry     beta= 0.70
     Davidson diagonalization with overlap
     ethr =  2.19E-09,  avg # of iterations =  4.0

     total cpu time spent up to now is      129.4 secs

     total energy              =    -918.52053513 Ry
     Harris-Foulkes estimate   =    -918.52053520 Ry
     estimated scf accuracy    <       0.00000018 Ry

     iteration # 13     ecut=    30.00 Ry     beta= 0.70
     Davidson diagonalization with overlap
     ethr =  1.62E-10,  avg # of iterations =  4.8

     total cpu time spent up to now is      131.1 secs

     total energy              =    -918.52053511 Ry
     Harris-Foulkes estimate   =    -918.52053528 Ry
     estimated scf accuracy    <       0.00000040 Ry

     iteration # 14     ecut=    30.00 Ry     beta= 0.70
     Davidson diagonalization with overlap
     ethr =  1.62E-10,  avg # of iterations =  4.2

     total cpu time spent up to now is      132.4 secs

     total energy              =    -918.52053519 Ry
     Harris-Foulkes estimate   =    -918.52053519 Ry
     estimated scf accuracy    <       0.00000001 Ry

     iteration # 15     ecut=    30.00 Ry     beta= 0.70
     Davidson diagonalization with overlap
     ethr =  9.33E-12,  avg # of iterations =  2.5

     total cpu time spent up to now is      133.1 secs

     total energy              =    -918.52053519 Ry
     Harris-Foulkes estimate   =    -918.52053519 Ry
     estimated scf accuracy    <          4.8E-09 Ry

     iteration # 16     ecut=    30.00 Ry     beta= 0.70
     Davidson diagonalization with overlap
     ethr =  4.24E-12,  avg # of iterations =  3.2

     total cpu time spent up to now is      134.1 secs

     total energy              =    -918.52053519 Ry
     Harris-Foulkes estimate   =    -918.52053519 Ry
     estimated scf accuracy    <          2.2E-09 Ry

     iteration # 17     ecut=    30.00 Ry     beta= 0.70
     Davidson diagonalization with overlap
     ethr =  1.94E-12,  avg # of iterations =  3.8

     total cpu time spent up to now is      135.1 secs

     total energy              =    -918.52053519 Ry
     Harris-Foulkes estimate   =    -918.52053519 Ry
     estimated scf accuracy    <          1.7E-10 Ry

     iteration # 18     ecut=    30.00 Ry     beta= 0.70
     Davidson diagonalization with overlap
     ethr =  1.50E-13,  avg # of iterations =  4.2

     total cpu time spent up to now is      136.5 secs

     End of self-consistent calculation

          k = 0.0000 0.0000 0.0000 (  3731 PWs)   bands (ev):

   -53.2185 -53.1843 -53.1179 -53.0875 -28.0263 -27.8382 -27.7440 -27.7070
   -27.6973 -27.6117 -27.5993 -27.5379 -27.4649 -27.4463 -27.3817 -27.2477
    -9.0560  -8.6888  -7.9366  -7.8717  -6.7106  -6.2749  -5.5085  -5.2747
    -5.1474  -4.9442   4.4619   4.8211   4.9471   4.9706   5.4854   5.8370
     5.9076   6.3953   6.9474   7.0884   7.5487   7.7203   7.7347   7.8565
     8.4700   8.6492   8.7423   8.8755   8.9820   8.9973   9.2777   9.3400
     9.4381  10.1731  10.2115  10.2476  10.2765  10.5490  10.6130  10.9446

          k = 0.0000 0.3178 0.0000 (  3738 PWs)   bands (ev):

   -53.2041 -53.1909 -53.1056 -53.0859 -28.0212 -27.8410 -27.7713 -27.7048
   -27.6963 -27.6485 -27.6189 -27.5490 -27.4563 -27.4514 -27.3948 -27.2399
    -8.8228  -8.5094  -7.8708  -7.8142  -6.5023  -6.1314  -5.2255  -5.2193
    -4.6582  -4.6158   4.3161   4.3674   4.4501   4.7369   4.7440   4.7764
     5.4215   5.5146   5.5283   5.8424   6.3104   6.7520   7.6132   7.7664
     8.3520   8.4100   8.5330   8.6726   8.7215   9.1553   9.8050   9.8274
    10.2176  10.3949  10.6130  10.7942  10.8671  10.9523  11.3018  11.4890

          k = 0.3804 0.0000 0.0000 (  3744 PWs)   bands (ev):

   -53.1721 -53.1468 -53.1350 -53.1153 -28.0845 -28.0252 -27.9751 -27.9663
   -27.6716 -27.6414 -27.5781 -27.5448 -27.4935 -27.4216 -27.3921 -27.2708
    -7.9587  -7.5100  -7.0927  -6.9294  -6.5460  -6.0888  -5.3418  -5.2389
    -5.1291  -4.9374   3.8191   4.0319   4.0635   4.9282   5.1467   5.2797
     5.4185   5.8158   6.4202   6.5997   6.7155   7.5982   7.6162   7.8803
     8.1116   8.3107   8.4737   8.5025   8.5794   8.8556   9.1480   9.4832
     9.8847  10.0036  10.0142  10.2144  10.5146  10.6239  10.8338  11.0127

          k = 0.3804 0.3178 0.0000 (  3760 PWs)   bands (ev):

   -53.1850 -53.1535 -53.1303 -53.1138 -28.0839 -28.0194 -27.9768 -27.9610
   -27.7000 -27.6588 -27.6086 -27.5629 -27.5018 -27.4239 -27.4012 -27.2749
    -7.7548  -7.3814  -7.0759  -6.9197  -6.2863  -5.9687  -4.9714  -4.9700
    -4.6843  -4.6709   3.7598   3.8750   3.9834   4.4203   4.5202   4.7631
     4.9008   5.3532   5.3581   5.6193   5.8668   6.2340   6.6836   7.2200
     7.5799   7.7011   7.9160   8.1867   8.6458   9.1017   9.8049  10.2306
    10.2620  10.3758  10.3890  10.6429  10.7613  11.1473  11.3256  11.4770

     highest occupied level (ev):    11.4890

!    total energy              =    -918.52053519 Ry
     Harris-Foulkes estimate   =    -918.52053519 Ry
     estimated scf accuracy    <          3.3E-11 Ry

     The total energy is the sum of the following terms:

     one-electron contribution =    -393.51308679 Ry
     hartree contribution      =     263.61987170 Ry
     xc contribution           =    -177.32029981 Ry
     ewald contribution        =    -611.30702029 Ry

     convergence has been achieved in  18 iterations

     Forces acting on atoms (cartesian axes, Ry/au):

     atom    1 type  1   force =     0.00000000   -0.13724039    0.01693761
     atom    2 type  1   force =     0.00000000    0.13724039   -0.01693761
     atom    3 type  1   force =     0.00000000    0.13724039    0.01693761
     atom    4 type  1   force =     0.00000000   -0.13724039   -0.01693761
     atom    5 type  2   force =    -0.00000000    0.09802662   -0.04650155
     atom    6 type  2   force =    -0.00000000   -0.09802662    0.04650155
     atom    7 type  2   force =     0.00000000   -0.09802662   -0.04650155
     atom    8 type  2   force =     0.00000000    0.09802662    0.04650155
     atom    9 type  2   force =     0.00000000   -0.10641010   -0.01381799
     atom   10 type  2   force =     0.00000000    0.10641010    0.01381799
     atom   11 type  2   force =     0.00000000    0.10641010   -0.01381799
     atom   12 type  2   force =     0.00000000   -0.13048318    0.00000000
     atom   13 type  2   force =     0.00000000    0.13048318    0.00000000
     atom   14 type  2   force =     0.00000000   -0.10641010    0.01381799

     Total force =     0.451311     Total SCF correction =     0.000028


     Computing stress (Cartesian axis) and pressure

          total   stress  (Ry/bohr**3)                   (kbar)     P=  -68.30
  -0.00141039   0.00000000   0.00000000       -207.48      0.00      0.00
   0.00000000   0.00039251   0.00000000          0.00     57.74      0.00
[...]
     atom   13 type  2   force =     0.00000000    0.00007374    0.00000000
     atom   14 type  2   force =     0.00000000   -0.00000823    0.00001576

     Total force =     0.000179     Total SCF correction =     0.000002


     Computing stress (Cartesian axis) and pressure

          total   stress  (Ry/bohr**3)                   (kbar)     P=   -0.33
  -0.00000140   0.00000000   0.00000000         -0.21      0.00      0.00
   0.00000000  -0.00000159   0.00000000          0.00     -0.23      0.00
   0.00000000   0.00000000  -0.00000375          0.00      0.00     -0.55

     Message from routine bfgs:
     history already reset at previous step: stopping

     bfgs converged in  72 scf cycles and  68 bfgs steps
     (criteria: energy <  1.0E-04 Ry, force <  1.0E-05Ry/Bohr, cell <  5.0E-01kbar)

     End of BFGS Geometry Optimization

     Final enthalpy =    -919.7277519667 Ry
Begin final coordinates
     new unit-cell volume =    644.47748 a.u.^3 (    95.50171 Ang^3 )
     density =      6.32489 g/cm^3

CELL_PARAMETERS (alat=  6.74981256)
   0.762926068   0.000000000   0.000000000
   0.000000000   1.027443993   0.000000000
   0.000000000   0.000000000   2.673572689

ATOMIC_POSITIONS (crystal)
V        0.000000000   0.247264000   0.652247020
V        0.500000073   0.752736145   0.847753198
V        0.500000073   0.752736145   0.152246948
V        0.000000000   0.247264000   0.347753124
O        0.500000073   0.529930619   0.571430781
O       -0.000000000   0.470069528   0.928569436
O       -0.000000000   0.470069528   0.071430709
O        0.500000073   0.529930619   0.428569364
O        0.000000000  -0.238443192   0.277975772
O        0.500000073   1.238443337   0.222024302
O        0.500000073   1.238443337   0.777975843
O        0.500000073   0.983649761   0.000000000
O       -0.000000000   0.016350385   0.500000073
O        0.000000000  -0.238443192   0.722024375
End final coordinates



     Writing output data file v2o5.save/

     A final scf calculation at the relaxed structure.
     The G-vectors are recalculated for the final unit cell
     Results may differ from those at the preceding step.

     Parallelization info
     --------------------
     sticks:   dense  smooth     PW     G-vecs:    dense   smooth      PW
     Min          21      21      6                  887      887     144
     Max          22      22      8                  893      893     146
     Sum         337     337    101                14239    14239    2315



     bravais-lattice index     =            8
     lattice parameter (alat)  =       6.7498  a.u.
     unit-cell volume          =     644.4775 (a.u.)^3
     number of atoms/cell      =           14
     number of atomic types    =            2
     number of electrons       =       112.00
     number of Kohn-Sham states=           56
     kinetic-energy cutoff     =      30.0000  Ry
     charge density cutoff     =     120.0000  Ry
     convergence threshold     =      1.0E-12
     mixing beta               =       0.7000
     number of iterations used =            8  plain     mixing
     Exchange-correlation      = PBE ( 1  4  3  4 0 0)

     celldm(1)=   6.749813  celldm(2)=   1.367024  celldm(3)=   3.213949
     celldm(4)=   0.000000  celldm(5)=   0.000000  celldm(6)=   0.000000

     crystal axes: (cart. coord. in units of alat)
               a(1) = (   0.762926   0.000000   0.000000 )  
               a(2) = (   0.000000   1.027444   0.000000 )  
               a(3) = (   0.000000   0.000000   2.673573 )  

     reciprocal axes: (cart. coord. in units 2 pi/alat)
               b(1) = (  1.310743  0.000000  0.000000 )  
               b(2) = (  0.000000  0.973289  0.000000 )  
               b(3) = (  0.000000  0.000000  0.374031 )  


     PseudoPot. # 1 for V  read from file:
     /home/mpicuntureo/pseudos/v.nc.upf
     MD5 check sum: 40fb93c06b4f9d8c28c5ccd071294a04
     Pseudo is Norm-conserving + core correction, Zval = 13.0
     Generated using ONCVPSP code by D. R. Hamann
     Using radial grid of 1536 points,  6 beta functions with: 
                l(1) =   0
                l(2) =   0
                l(3) =   1
                l(4) =   1
                l(5) =   2
                l(6) =   2

     PseudoPot. # 2 for O  read from file:
     /home/mpicuntureo/pseudos/o.nc.upf
     MD5 check sum: 3e3f909f7470e8921608ab6b1f57bbae
     Pseudo is Norm-conserving + core correction, Zval =  6.0
     Generated using ONCVPSP code by D. R. Hamann
     Using radial grid of  936 points,  5 beta functions with: 
                l(1) =   0
                l(2) =   0
                l(3) =   1
                l(4) =   1
                l(5) =   2

     atomic species   valence    mass     pseudopotential
        V             13.00    50.94150     V ( 1.00)
        O              6.00    15.99940     O ( 1.00)

      8 Sym. Ops., with inversion, found ( 4 have fractional translation)



   Cartesian axes

     site n.     atom                  positions (alat units)
         1           V   tau(   1) = (   0.0000000   0.2540499   1.7438298  )
         2           V   tau(   2) = (   0.3814631   0.7733942   2.2665298  )
         3           V   tau(   3) = (   0.3814631   0.7733942   0.4070433  )
         4           V   tau(   4) = (   0.0000000   0.2540499   0.9297433  )
         5           O   tau(   5) = (   0.3814631   0.5444740   1.5277617  )
         6           O   tau(   6) = (  -0.0000000   0.4829701   2.4825979  )
         7           O   tau(   7) = (  -0.0000000   0.4829701   0.1909752  )
         8           O   tau(   8) = (   0.3814631   0.5444740   1.1458113  )
         9           O   tau(   9) = (   0.0000000  -0.2449870   0.7431884  )
        10           O   tau(  10) = (   0.3814631   1.2724312   0.5935981  )
        11           O   tau(  11) = (   0.3814631   1.2724312   2.0799750  )
        12           O   tau(  12) = (   0.3814631   1.0106450   0.0000000  )
        13           O   tau(  13) = (  -0.0000000   0.0167991   1.3367865  )
        14           O   tau(  14) = (   0.0000000  -0.2449870   1.9303847  )

     number of k points=     4
                       cart. coord. in units 2pi/alat
        k(    1) = (   0.0000000   0.0000000   0.0000000), wk =   0.2222222
        k(    2) = (   0.0000000   0.3244297   0.0000000), wk =   0.4444444
        k(    3) = (   0.4369143   0.0000000   0.0000000), wk =   0.4444444
        k(    4) = (   0.4369143   0.3244297   0.0000000), wk =   0.8888889

     Dense  grid:    14239 G-vectors     FFT dimensions: (  18,  25,  64)

     Estimated max dynamical RAM per process >       6.65 MB

     Estimated total dynamical RAM >     106.47 MB

     Check: negative core charge=   -0.002827

     Initial potential from superposition of free atoms

     starting charge  111.99579, renormalised to  112.00000
     Starting wfcs are   80 randomized atomic wfcs

     total cpu time spent up to now is     1215.7 secs

     Self-consistent Calculation

     iteration #  1     ecut=    30.00 Ry     beta= 0.70
     Davidson diagonalization with overlap
     ethr =  1.00E-06,  avg # of iterations = 11.2

     total cpu time spent up to now is     1217.0 secs

     total energy              =    -907.85940569 Ry
     Harris-Foulkes estimate   =    -911.53172892 Ry
     estimated scf accuracy    <       4.88573753 Ry

     iteration #  2     ecut=    30.00 Ry     beta= 0.70
     Davidson diagonalization with overlap
     ethr =  4.36E-03,  avg # of iterations =  4.8

     total cpu time spent up to now is     1217.7 secs

     total energy              =    -905.26983141 Ry
     Harris-Foulkes estimate   =    -912.92844552 Ry
     estimated scf accuracy    <      21.86781557 Ry

     iteration #  3     ecut=    30.00 Ry     beta= 0.70
     Davidson diagonalization with overlap
     ethr =  4.36E-03,  avg # of iterations =  5.2

     total cpu time spent up to now is     1218.3 secs

     total energy              =    -909.86094312 Ry
     Harris-Foulkes estimate   =    -910.37106367 Ry
     estimated scf accuracy    <       1.60818680 Ry

     iteration #  4     ecut=    30.00 Ry     beta= 0.70
     Davidson diagonalization with overlap
     ethr =  1.44E-03,  avg # of iterations =  3.8

     total cpu time spent up to now is     1218.6 secs

     total energy              =    -909.98948539 Ry
     Harris-Foulkes estimate   =    -910.07752863 Ry
     estimated scf accuracy    <       0.25714692 Ry

     iteration #  5     ecut=    30.00 Ry     beta= 0.70
     Davidson diagonalization with overlap
     ethr =  2.30E-04,  avg # of iterations =  4.2

     total cpu time spent up to now is     1218.9 secs

     total energy              =    -910.01111620 Ry
     Harris-Foulkes estimate   =    -910.02257449 Ry
     estimated scf accuracy    <       0.03522960 Ry

     iteration #  6     ecut=    30.00 Ry     beta= 0.70
     Davidson diagonalization with overlap
     ethr =  3.15E-05,  avg # of iterations =  4.5

     total cpu time spent up to now is     1219.3 secs

     total energy              =    -910.02111606 Ry
     Harris-Foulkes estimate   =    -910.02208358 Ry
     estimated scf accuracy    <       0.00227090 Ry

     iteration #  7     ecut=    30.00 Ry     beta= 0.70
     Davidson diagonalization with overlap
     ethr =  2.03E-06,  avg # of iterations =  4.2

     total cpu time spent up to now is     1219.7 secs

     total energy              =    -910.02152060 Ry
     Harris-Foulkes estimate   =    -910.02180740 Ry
     estimated scf accuracy    <       0.00098522 Ry

     iteration #  8     ecut=    30.00 Ry     beta= 0.70
     Davidson diagonalization with overlap
     ethr =  8.80E-07,  avg # of iterations =  3.5

     total cpu time spent up to now is     1219.9 secs

     total energy              =    -910.02159100 Ry
     Harris-Foulkes estimate   =    -910.02162280 Ry
     estimated scf accuracy    <       0.00010934 Ry

     iteration #  9     ecut=    30.00 Ry     beta= 0.70
     Davidson diagonalization with overlap
     ethr =  9.76E-08,  avg # of iterations =  5.0

     total cpu time spent up to now is     1220.3 secs

     total energy              =    -910.02161992 Ry
     Harris-Foulkes estimate   =    -910.02162093 Ry
     estimated scf accuracy    <       0.00000282 Ry

     iteration # 10     ecut=    30.00 Ry     beta= 0.70
     Davidson diagonalization with overlap
     ethr =  2.51E-09,  avg # of iterations =  5.5

     total cpu time spent up to now is     1220.8 secs

     total energy              =    -910.02162130 Ry
     Harris-Foulkes estimate   =    -910.02162133 Ry
     estimated scf accuracy    <       0.00000006 Ry

     iteration # 11     ecut=    30.00 Ry     beta= 0.70
     Davidson diagonalization with overlap
     ethr =  5.22E-11,  avg # of iterations =  5.0

     total cpu time spent up to now is     1221.4 secs

     total energy              =    -910.02162134 Ry
     Harris-Foulkes estimate   =    -910.02162136 Ry
     estimated scf accuracy    <       0.00000005 Ry

     iteration # 12     ecut=    30.00 Ry     beta= 0.70
     Davidson diagonalization with overlap
     ethr =  4.63E-11,  avg # of iterations =  4.2

     total cpu time spent up to now is     1221.7 secs

     total energy              =    -910.02162134 Ry
     Harris-Foulkes estimate   =    -910.02162135 Ry
     estimated scf accuracy    <          2.6E-09 Ry

     iteration # 13     ecut=    30.00 Ry     beta= 0.70
     Davidson diagonalization with overlap
     ethr =  2.28E-12,  avg # of iterations =  4.2

     total cpu time spent up to now is     1222.3 secs

     total energy              =    -910.02162135 Ry
     Harris-Foulkes estimate   =    -910.02162135 Ry
     estimated scf accuracy    <          6.4E-10 Ry

     iteration # 14     ecut=    30.00 Ry     beta= 0.70
     Davidson diagonalization with overlap
     ethr =  5.68E-13,  avg # of iterations =  2.8

     total cpu time spent up to now is     1222.5 secs

     total energy              =    -910.02162135 Ry
     Harris-Foulkes estimate   =    -910.02162135 Ry
     estimated scf accuracy    <          2.4E-10 Ry

     iteration # 15     ecut=    30.00 Ry     beta= 0.70
     Davidson diagonalization with overlap
     ethr =  2.11E-13,  avg # of iterations =  4.2

     total cpu time spent up to now is     1222.8 secs

     total energy              =    -910.02162135 Ry
     Harris-Foulkes estimate   =    -910.02162135 Ry
     estimated scf accuracy    <          1.8E-11 Ry

     iteration # 16     ecut=    30.00 Ry     beta= 0.70
     Davidson diagonalization with overlap
     ethr =  1.00E-13,  avg # of iterations =  2.2

     total cpu time spent up to now is     1223.0 secs

     total energy              =    -910.02162135 Ry
     Harris-Foulkes estimate   =    -910.02162135 Ry
     estimated scf accuracy    <          1.3E-12 Ry

     iteration # 17     ecut=    30.00 Ry     beta= 0.70
     Davidson diagonalization with overlap
     ethr =  1.00E-13,  avg # of iterations =  1.0

     total cpu time spent up to now is     1223.1 secs

     End of self-consistent calculation

          k = 0.0000 0.0000 0.0000 (  1799 PWs)   bands (ev):

   -50.5122 -50.5090 -50.4299 -50.4003 -25.4254 -25.2704 -25.1461 -25.1306
   -25.1186 -25.0080 -24.9470 -24.9226 -24.9218 -24.8964 -24.7336 -24.6670
    -8.5990  -8.3209  -5.5149  -4.7605  -3.2905  -3.2319  -2.3220  -2.2180
    -0.8665   0.1712   6.9156   7.6705   8.3911   8.5958   9.7032   9.8945
    10.2265  10.4736  10.7016  10.8692  11.1494  11.3414  12.6309  12.7934
    12.9189  13.1692  13.6203  14.1371  14.4872  15.0191  15.0903  15.2522
    15.2604  15.6114  15.6801  15.9100  15.9647  17.3120  19.0091  19.1897

          k = 0.0000 0.3244 0.0000 (  1814 PWs)   bands (ev):

   -50.5561 -50.4810 -50.4719 -50.4591 -25.3799 -25.3359 -25.2866 -25.2026
   -25.0742 -25.0525 -25.0042 -24.9572 -24.9341 -24.8028 -24.7579 -24.7139
    -8.3814  -8.2155  -4.8736  -4.4657  -3.6849  -3.5254  -2.5748  -2.4031
    -0.8770   0.1576   7.0942   8.0087   8.9415   9.0949   9.8105   9.9809
    10.3092  10.6609  10.8396  11.1644  11.1984  11.6250  12.1866  12.3456
    12.4151  12.9929  13.0707  13.5615  13.6240  13.8231  14.4074  14.4468
    14.9355  15.0960  15.5341  15.6561  15.9446  17.3379  18.9665  19.4790

          k = 0.4369 0.0000 0.0000 (  1775 PWs)   bands (ev):

   -50.4201 -50.3907 -50.3593 -50.3206 -25.3145 -25.2093 -25.1880 -25.1390
   -25.0949 -25.0867 -25.0172 -25.0057 -24.9492 -24.9424 -24.9179 -24.8980
    -8.0397  -8.0098  -4.5577  -4.4875  -3.4943  -3.4856  -2.1581  -2.0851
    -0.5829  -0.3378   7.3805   7.6415   8.8943   9.3430   9.5576   9.6068
     9.6381  10.1046  10.5643  10.6565  11.3427  11.6276  11.8935  12.0989
    12.6336  12.6658  13.0393  13.3357  13.3640  13.8734  13.9266  14.0437
    14.9608  15.2185  15.3149  15.7119  15.8707  17.0527  18.8262  19.3485

          k = 0.4369 0.3244 0.0000 (  1781 PWs)   bands (ev):

   -50.4397 -50.3853 -50.3605 -50.3536 -25.2298 -25.2125 -25.1882 -25.1660
   -25.1634 -25.0686 -25.0372 -25.0177 -25.0134 -24.9821 -24.9726 -24.8982
    -7.9795  -7.9591  -4.1126  -4.0617  -3.5273  -3.5072  -2.2735  -2.1820
    -0.6004  -0.4348   7.2403   7.5222   8.2299   8.5095   8.9758   9.1865
     9.5849  10.0771  10.3449  10.8373  10.8623  11.7516  12.2523  12.3816
    12.5139  12.8015  13.5411  13.5999  13.6005  14.0535  14.5478  14.7608
    15.2071  15.2646  15.4427  15.8250  15.9955  16.4684  19.4551  19.7115

     highest occupied level (ev):    19.7115

!    total energy              =    -910.02162135 Ry
     Harris-Foulkes estimate   =    -910.02162135 Ry
     estimated scf accuracy    <          5.9E-14 Ry

     The total energy is the sum of the following terms:

     one-electron contribution =    -156.85238931 Ry
     hartree contribution      =     158.98750281 Ry
     xc contribution           =    -174.27939682 Ry
     ewald contribution        =    -737.87733803 Ry

     convergence has been achieved in  17 iterations

     Forces acting on atoms (cartesian axes, Ry/au):

     atom    1 type  1   force =     0.00000000   -0.05005235   -0.08941772
     atom    2 type  1   force =     0.00000000    0.05005235    0.08941772
     atom    3 type  1   force =    -0.00000000    0.05005235   -0.08941772
     atom    4 type  1   force =    -0.00000000   -0.05005235    0.08941772
     atom    5 type  2   force =     0.00000000    0.07122730   -0.07697559
     atom    6 type  2   force =     0.00000000   -0.07122730    0.07697559
     atom    7 type  2   force =     0.00000000   -0.07122730   -0.07697559
     atom    8 type  2   force =     0.00000000    0.07122730    0.07697559
     atom    9 type  2   force =     0.00000000   -0.02526771    0.06039474
     atom   10 type  2   force =    -0.00000000    0.02526771   -0.06039474
     atom   11 type  2   force =     0.00000000    0.02526771    0.06039474
     atom   12 type  2   force =     0.00000000   -0.01688302    0.00000000
     atom   13 type  2   force =     0.00000000    0.01688302    0.00000000
     atom   14 type  2   force =     0.00000000   -0.02526771   -0.06039474

     Total force =     0.322042     Total SCF correction =     0.000001


     Computing stress (Cartesian axis) and pressure

          total   stress  (Ry/bohr**3)                   (kbar)     P=-4001.24
  -0.02890982   0.00000000   0.00000000      -4252.78      0.00      0.00
   0.00000000  -0.02920404   0.00000000          0.00  -4296.06      0.00
   0.00000000   0.00000000  -0.02348587          0.00      0.00  -3454.89


     Writing output data file v2o5.save/

     init_run     :      0.61s CPU      0.70s WALL (       2 calls)
     electrons    :   1091.22s CPU   1129.77s WALL (      73 calls)
     update_pot   :     26.85s CPU     26.93s WALL (      71 calls)
     forces       :     23.28s CPU     23.58s WALL (      73 calls)
     stress       :     39.81s CPU     39.97s WALL (      73 calls)

     Called by init_run:
     wfcinit      :      0.26s CPU      0.27s WALL (       2 calls)
     potinit      :      0.10s CPU      0.10s WALL (       2 calls)
     hinit0       :      0.24s CPU      0.30s WALL (       2 calls)

     Called by electrons:
     c_bands      :   1052.34s CPU   1088.94s WALL (    1284 calls)
     sum_band     :     33.23s CPU     34.72s WALL (    1284 calls)
     v_of_rho     :      3.93s CPU      4.00s WALL (    1347 calls)
     mix_rho      :      1.41s CPU      1.45s WALL (    1284 calls)

     Called by c_bands:
     init_us_2    :      3.56s CPU      3.82s WALL (   10864 calls)
     cegterg      :   1033.97s CPU   1069.12s WALL (    5136 calls)

     Called by sum_band:

     Called by *egterg:
     h_psi        :    364.74s CPU    379.01s WALL (   26240 calls)
     g_psi        :      1.09s CPU      1.11s WALL (   21096 calls)
     cdiaghg      :    405.05s CPU    420.41s WALL (   25908 calls)

     Called by h_psi:
     h_psi:pot    :    362.56s CPU    375.97s WALL (   26240 calls)
     h_psi:calbec :    112.41s CPU    117.23s WALL (   26240 calls)
     vloc_psi     :    185.35s CPU    193.22s WALL (   26240 calls)
     add_vuspsi   :     64.65s CPU     65.39s WALL (   26240 calls)

     General routines
     calbec       :    124.46s CPU    129.60s WALL (   27700 calls)
     fft          :      7.50s CPU      7.55s WALL (   15303 calls)
     ffts         :      0.22s CPU      0.22s WALL (    1284 calls)
     fftw         :    202.24s CPU    210.84s WALL ( 2032122 calls)

     Parallel routines
     fft_scatt_xy :     10.94s CPU     11.39s WALL ( 2048709 calls)
     fft_scatt_yz :    128.64s CPU    133.81s WALL ( 2048709 calls)

     PWSCF        :  19m43.84s CPU  20m23.40s WALL


   This run was terminated on:  15:40:15  27Oct2024            

=------------------------------------------------------------------------------=
   JOB DONE.
=------------------------------------------------------------------------------=
