55
Lattice="7.089296041832556 0.0 0.0 0.0 8.758910331236624 0.0 0.0 0.0 11.619143533682305" Properties=species:S:1:pos:R:3:forces:R:3 energy=-68757.6947037464 pbc="T T T"
V        0.00000000       1.66171256       7.54032911       0.00000000      -0.00035995       0.00055921
V        1.76766138       2.68876794       9.89478924      -0.00037718       0.00012290       0.00036150
V        1.78020022       2.70621612       1.72350286      -0.00007456      -0.00002545       0.00069728
V        0.00000000       1.69453529       4.10532272       0.00000000      -0.00029259       0.00144856
O        1.77188518       2.17391774       7.89496264      -0.00128504      -0.00006016      -0.00002957
O        0.00000000       2.17721781       9.52810179       0.00000000      -0.00045920      -0.00003522
O        0.00000000       2.26445443       2.14132116       0.00000000       0.00130175       0.00002134
O        1.81391266       2.16470379       3.73532669      -0.00071605      -0.00002365       0.00008073
O        0.00000000       0.09845402       4.11094382       0.00000000       0.00000874       0.00149895
O        1.85290449       4.30161824       1.73693921      -0.00005014       0.00099219       0.00028848
O        1.76306468       4.28144919       9.90346867       0.00052116       0.00012238       0.00011004
O        1.78143801       2.24597902       0.01380428      -0.00009025      -0.00017432      -0.00013498
O        0.00000000       2.14503382       5.81401250       0.00000000      -0.00024271       0.00042140
O        0.00000000       0.06803456       7.50190158       0.00000000       0.00018358       0.00073688
V        0.00000000       6.04653645       7.51614965       0.00000000       0.00061912      -0.00122513
V        1.77107346       7.07278153       9.86065074      -0.00060961       0.00014398       0.00015787
V        1.74916399       7.03965679       1.67693399      -0.00048722       0.00008690      -0.00021726
V        0.00000000       6.03713108       4.09353889       0.00000000       0.00057567      -0.00048285
O        1.78622966       6.53787004       7.87273698      -0.00106624       0.00041395      -0.00038824
O        0.00000000       6.58774465       9.48948427       0.00000000      -0.00065949       0.00091043
O        0.00000000       6.50657292       2.12428700       0.00000000      -0.00084178      -0.00058004
O        1.81322145       6.51827380       3.73669563      -0.00111534      -0.00063455       0.00055099
O        0.00000000       4.44260520       4.13009485       0.00000000       0.00007353      -0.00005554
O        1.68997404       8.63546938       1.69762977      -0.00076259      -0.00017766      -0.00093331
O        1.79450642       8.66473470       9.89573070       0.00037949       0.00042089      -0.00126293
O        1.76945214       6.59399245      -0.02795593       0.00056616      -0.00126678       0.00032165
O        0.00000000       6.53294368       5.79291121       0.00000000      -0.00026637      -0.00091531
O        0.00000000       4.45507881       7.48831565       0.00000000       0.00069420       0.00078547
V        3.54464802       1.69849963       7.54560354       0.00000000       0.00029568       0.00074048
V        5.32163466       2.68876794       9.89478924       0.00037718       0.00012290       0.00036150
V        5.30909582       2.70621612       1.72350286       0.00007456      -0.00002545       0.00069728
V        3.54464802       1.66508139       4.10911124       0.00000000      -0.00034119       0.00009693
O        5.31741086       2.17391774       7.89496264       0.00128504      -0.00006016      -0.00002957
O        3.54464802       2.17521012       9.50933429       0.00000000      -0.00059778      -0.00234947
O        3.54464802       2.16069692       2.14115173       0.00000000      -0.00048311       0.00061347
O        5.27538339       2.16470379       3.73532669       0.00071605      -0.00002365       0.00008073
O        3.54464802      -0.06872789       4.23234377       0.00000000       0.00013215      -0.00088317
O        5.23639155       4.30161824       1.73693921       0.00005014       0.00099219       0.00028848
O        5.32623136       4.28144919       9.90346867      -0.00052116       0.00012238       0.00011004
O        5.30785803       2.24597902       0.01380428       0.00009025      -0.00017432      -0.00013498
O        3.54464802       2.19037909       5.75072990       0.00000000      -0.00173575       0.00037050
O        3.54464802       0.10882849       7.43047196       0.00000000       0.00065255       0.00093537
V        3.54464802       5.98042876       7.57706655       0.00000000       0.00070011       0.00015195
V        5.31822258       7.07278153       9.86065074       0.00060961       0.00014398       0.00015787
V        5.34013205       7.03965679       1.67693399       0.00048722       0.00008690      -0.00021726
V        3.54464802       6.92522208       4.14509863       0.00000000      -0.00050291      -0.00091943
O        5.30306638       6.53787004       7.87273698       0.00106624       0.00041395      -0.00038824
O        3.54464802       6.54008544       9.49819630       0.00000000       0.00200520       0.00158586
O        3.54464802       6.68582577       2.12403320       0.00000000      -0.00027485      -0.00094925
O        5.27607459       6.51827380       3.73669563       0.00111534      -0.00063455       0.00055099
O        5.39932200       8.63546938       1.69762977       0.00076259      -0.00017766      -0.00093331
O        5.29478962       8.66473470       9.89573070      -0.00037949       0.00042089      -0.00126293
O        5.31984391       6.59399245      -0.02795593      -0.00056616      -0.00126678       0.00032165
O        3.54464802       6.36857552       5.76035220       0.00000000       0.00004294      -0.00000694
O        3.54464802       4.38741503       7.55538890       0.00000000      -0.00010850      -0.00167842
