
     Program PWSCF v.6.4.1 starts on 18May2024 at 23:24:53 

     This program is part of the open-source Quantum ESPRESSO suite
     for quantum simulation of materials; please cite
         "P. Giannozzi et al., J. Phys.:Condens. Matter 21 395502 (2009);
         "P. Giannozzi et al., J. Phys.:Condens. Matter 29 465901 (2017);
          URL http://www.quantum-espresso.org", 
     in publications or presentations arising from this work. More details at
     http://www.quantum-espresso.org/quote

     Parallel version (MPI), running on    32 processors

     MPI processes distributed on     1 nodes
     R & G space division:  proc/nbgrp/npool/nimage =      32
     Reading input from v2o5.vc.in
Warning: card O       -0.000000000   0.048914545   0.643203052 ignored

     Current dimensions of program PWSCF are:
     Max number of different atomic species (ntypx) = 10
     Max number of k-points (npk) =  40000
     Max angular momentum in pseudopotentials (lmaxx) =  3

     IMPORTANT: XC functional enforced from input :
     Exchange-correlation      = VDW-DF ( 1  4  4  0 1 0)
     Any further DFT definition will be discarded
     Please, verify this is what you really want


     Subspace diagonalization in iterative solution of the eigenvalue problem:
     one sub-group per band group will be used
     ELPA distributed-memory algorithm (size of sub-group:  4*  4 procs)


     Parallelization info
     --------------------
     sticks:   dense  smooth     PW     G-vecs:    dense   smooth      PW
     Min          71      71     19                 7323     7323    1013
     Max          72      72     20                 7332     7332    1023
     Sum        2283    2283    615               234475   234475   32525



     bravais-lattice index     =            8
     lattice parameter (alat)  =       6.7676  a.u.
     unit-cell volume          =    1320.1235 (a.u.)^3
     number of atoms/cell      =           14
     number of atomic types    =            2
     number of electrons       =       112.00
     number of Kohn-Sham states=           56
     kinetic-energy cutoff     =     120.0000  Ry
     charge density cutoff     =     480.0000  Ry
     convergence threshold     =      1.0E-10
     mixing beta               =       0.7000
     number of iterations used =            8  plain     mixing
     Exchange-correlation      = VDW-DF ( 1  4  4  0 1 0)
     nstep                     =          500


     celldm(1)=   6.767583  celldm(2)=   1.308375  celldm(3)=   3.255230
     celldm(4)=   0.000000  celldm(5)=   0.000000  celldm(6)=   0.000000

     crystal axes: (cart. coord. in units of alat)
               a(1) = (   1.000000   0.000000   0.000000 )  
               a(2) = (   0.000000   1.308375   0.000000 )  
               a(3) = (   0.000000   0.000000   3.255230 )  

     reciprocal axes: (cart. coord. in units 2 pi/alat)
               b(1) = (  1.000000  0.000000  0.000000 )  
               b(2) = (  0.000000  0.764307  0.000000 )  
               b(3) = (  0.000000  0.000000  0.307198 )  


     PseudoPot. # 1 for V  read from file:
     /home/mpicuntureo/pseudos/v.nc.upf
     MD5 check sum: 40fb93c06b4f9d8c28c5ccd071294a04
     Pseudo is Norm-conserving + core correction, Zval = 13.0
     Generated using ONCVPSP code by D. R. Hamann
     Using radial grid of 1536 points,  6 beta functions with: 
                l(1) =   0
                l(2) =   0
                l(3) =   1
                l(4) =   1
                l(5) =   2
                l(6) =   2

     PseudoPot. # 2 for O  read from file:
     /home/mpicuntureo/pseudos/o.nc.upf
     MD5 check sum: 3e3f909f7470e8921608ab6b1f57bbae
     Pseudo is Norm-conserving + core correction, Zval =  6.0
     Generated using ONCVPSP code by D. R. Hamann
     Using radial grid of  936 points,  5 beta functions with: 
                l(1) =   0
                l(2) =   0
                l(3) =   1
                l(4) =   1
                l(5) =   2

     vdW kernel table read from file vdW_kernel_table
     MD5 check sum: 8c4337f4b28e1601c069d7ef7b6561bc

     atomic species   valence    mass     pseudopotential
        V             13.00    50.94150     V ( 1.00)
        O              6.00    15.99940     O ( 1.00)

      8 Sym. Ops., with inversion, found ( 4 have fractional translation)



   Cartesian axes

     site n.     atom                  positions (alat units)
         1           V   tau(   1) = (   0.0000000   0.5083212   2.1085108  )
         2           V   tau(   2) = (   0.5000000   0.8000533   2.7743339  )
         3           V   tau(   3) = (   0.5000000   0.8000533   0.4808959  )
         4           V   tau(   4) = (   0.0000000   0.5083212   1.1467190  )
         5           O   tau(   5) = (   0.5000000   0.6458297   2.2175314  )
         6           O   tau(   6) = (   0.0000000   0.6625449   2.6653133  )
         7           O   tau(   7) = (   0.0000000   0.6625449   0.5899165  )
         8           O   tau(   8) = (   0.5000000   0.6458297   1.0376984  )
         9           O   tau(   9) = (   0.0000000   0.0639985   1.1614561  )
        10           O   tau(  10) = (   0.5000000   1.2443760   0.4661588  )
        11           O   tau(  11) = (   0.5000000   1.2443760   2.7890710  )
        12           O   tau(  12) = (   0.5000000   0.6549630   0.0000000  )
        13           O   tau(  13) = (   0.0000000   0.6534115   1.6276149  )
        14           O   tau(  14) = (   0.0000000   0.0639985   2.0937737  )

     number of k points=     4
                       cart. coord. in units 2pi/alat
        k(    1) = (   0.0000000   0.0000000   0.0000000), wk =   0.2222222
        k(    2) = (   0.0000000   0.2547691   0.0000000), wk =   0.4444444
        k(    3) = (   0.3333333   0.0000000   0.0000000), wk =   0.4444444
        k(    4) = (   0.3333333   0.2547691   0.0000000), wk =   0.8888889

     Dense  grid:   234475 G-vectors     FFT dimensions: (  48,  64, 160)

     Estimated max dynamical RAM per process >      25.20 MB

     Estimated total dynamical RAM >     806.44 MB

     Initial potential from superposition of free atoms

     starting charge  111.99579, renormalised to  112.00000


     %%%%%%%%%%%%%%%%%%%%%%%%%%%%%%%%%%%%%%%%%%%%%%%%%%%%%%%%%%%%%%%%%%%%%%%%
     %                                                                      %
     % You are using vdW-DF, which was implemented by the Thonhauser group. %
     % Please cite the following two papers that made this development      %
     % possible and the two reviews that describe the various versions:     %
     %                                                                      %
     %   T. Thonhauser et al., PRL 115, 136402 (2015).                      %
     %   T. Thonhauser et al., PRB 76, 125112 (2007).                       %
     %   K. Berland et al., Rep. Prog. Phys. 78, 066501 (2015).             %
     %   D.C. Langreth et al., J. Phys.: Condens. Matter 21, 084203 (2009). %
     %                                                                      %
     %                                                                      %
     % If you are calculating the stress with vdW-DF, please also cite:     %
     %                                                                      %
     %   R. Sabatini et al., J. Phys.: Condens. Matter 24, 424209 (2012).   %
     %                                                                      %
     %%%%%%%%%%%%%%%%%%%%%%%%%%%%%%%%%%%%%%%%%%%%%%%%%%%%%%%%%%%%%%%%%%%%%%%%


     Starting wfcs are   80 randomized atomic wfcs

     total cpu time spent up to now is        2.3 secs

     Self-consistent Calculation

     iteration #  1     ecut=   120.00 Ry     beta= 0.70
     Davidson diagonalization with overlap
     ethr =  1.00E-02,  avg # of iterations =  2.0

     total cpu time spent up to now is        3.8 secs

     total energy              =    -920.61145054 Ry
     Harris-Foulkes estimate   =    -927.68199966 Ry
     estimated scf accuracy    <       8.84403143 Ry

     iteration #  2     ecut=   120.00 Ry     beta= 0.70
     Davidson diagonalization with overlap
     ethr =  7.90E-03,  avg # of iterations =  6.2

     total cpu time spent up to now is        7.5 secs

     total energy              =    -911.04827492 Ry
     Harris-Foulkes estimate   =    -945.51124301 Ry
     estimated scf accuracy    <     153.61269454 Ry

     iteration #  3     ecut=   120.00 Ry     beta= 0.70
     Davidson diagonalization with overlap
     ethr =  7.90E-03,  avg # of iterations =  5.8

     total cpu time spent up to now is       11.1 secs

     total energy              =    -925.69999837 Ry
     Harris-Foulkes estimate   =    -926.65876384 Ry
     estimated scf accuracy    <       3.01723517 Ry

     iteration #  4     ecut=   120.00 Ry     beta= 0.70
     Davidson diagonalization with overlap
     ethr =  2.69E-03,  avg # of iterations =  4.0

     total cpu time spent up to now is       12.9 secs

     total energy              =    -925.95813099 Ry
     Harris-Foulkes estimate   =    -926.10796905 Ry
     estimated scf accuracy    <       0.88004433 Ry

     iteration #  5     ecut=   120.00 Ry     beta= 0.70
     Davidson diagonalization with overlap
     ethr =  7.86E-04,  avg # of iterations =  3.5

     total cpu time spent up to now is       14.6 secs

     total energy              =    -925.87740971 Ry
     Harris-Foulkes estimate   =    -926.02023847 Ry
     estimated scf accuracy    <       0.47646601 Ry

     iteration #  6     ecut=   120.00 Ry     beta= 0.70
     Davidson diagonalization with overlap
     ethr =  4.25E-04,  avg # of iterations =  4.2

     total cpu time spent up to now is       17.1 secs

     total energy              =    -926.02816157 Ry
     Harris-Foulkes estimate   =    -926.04876853 Ry
     estimated scf accuracy    <       0.27327632 Ry

     iteration #  7     ecut=   120.00 Ry     beta= 0.70
     Davidson diagonalization with overlap
     ethr =  2.44E-04,  avg # of iterations =  1.0

     total cpu time spent up to now is       18.7 secs

     total energy              =    -925.98950802 Ry
     Harris-Foulkes estimate   =    -926.03064612 Ry
     estimated scf accuracy    <       0.21733490 Ry

     iteration #  8     ecut=   120.00 Ry     beta= 0.70
     Davidson diagonalization with overlap
     ethr =  1.94E-04,  avg # of iterations =  3.5

     total cpu time spent up to now is       20.1 secs

     total energy              =    -926.00549176 Ry
     Harris-Foulkes estimate   =    -926.01089019 Ry
     estimated scf accuracy    <       0.02344454 Ry

     iteration #  9     ecut=   120.00 Ry     beta= 0.70
     Davidson diagonalization with overlap
     ethr =  2.09E-05,  avg # of iterations =  5.0

     total cpu time spent up to now is       22.3 secs

     total energy              =    -926.01551309 Ry
     Harris-Foulkes estimate   =    -926.01679160 Ry
     estimated scf accuracy    <       0.00789750 Ry

     iteration # 10     ecut=   120.00 Ry     beta= 0.70
     Davidson diagonalization with overlap
     ethr =  7.05E-06,  avg # of iterations =  3.0

     total cpu time spent up to now is       23.9 secs

     total energy              =    -926.01526467 Ry
     Harris-Foulkes estimate   =    -926.01584797 Ry
     estimated scf accuracy    <       0.00396878 Ry

     iteration # 11     ecut=   120.00 Ry     beta= 0.70
     Davidson diagonalization with overlap
     ethr =  3.54E-06,  avg # of iterations =  4.0

     total cpu time spent up to now is       25.7 secs

     total energy              =    -926.01564028 Ry
     Harris-Foulkes estimate   =    -926.01568787 Ry
     estimated scf accuracy    <       0.00033702 Ry

     iteration # 12     ecut=   120.00 Ry     beta= 0.70
     Davidson diagonalization with overlap
     ethr =  3.01E-07,  avg # of iterations =  4.5

     total cpu time spent up to now is       28.1 secs

     total energy              =    -926.01577895 Ry
     Harris-Foulkes estimate   =    -926.01578638 Ry
     estimated scf accuracy    <       0.00002909 Ry

     iteration # 13     ecut=   120.00 Ry     beta= 0.70
     Davidson diagonalization with overlap
     ethr =  2.60E-08,  avg # of iterations =  4.8

     total cpu time spent up to now is       30.4 secs

     total energy              =    -926.01578574 Ry
     Harris-Foulkes estimate   =    -926.01578952 Ry
     estimated scf accuracy    <       0.00001695 Ry

     iteration # 14     ecut=   120.00 Ry     beta= 0.70
     Davidson diagonalization with overlap
     ethr =  1.51E-08,  avg # of iterations =  4.2

     total cpu time spent up to now is       32.0 secs

     total energy              =    -926.01578489 Ry
     Harris-Foulkes estimate   =    -926.01578703 Ry
     estimated scf accuracy    <       0.00000950 Ry

     iteration # 15     ecut=   120.00 Ry     beta= 0.70
     Davidson diagonalization with overlap
     ethr =  8.49E-09,  avg # of iterations =  4.0

     total cpu time spent up to now is       34.3 secs

     total energy              =    -926.01578661 Ry
     Harris-Foulkes estimate   =    -926.01578701 Ry
     estimated scf accuracy    <       0.00000150 Ry

     iteration # 16     ecut=   120.00 Ry     beta= 0.70
     Davidson diagonalization with overlap
     ethr =  1.34E-09,  avg # of iterations =  4.0

     total cpu time spent up to now is       36.2 secs

     total energy              =    -926.01578671 Ry
     Harris-Foulkes estimate   =    -926.01578677 Ry
     estimated scf accuracy    <       0.00000031 Ry

     iteration # 17     ecut=   120.00 Ry     beta= 0.70
     Davidson diagonalization with overlap
     ethr =  2.73E-10,  avg # of iterations =  4.2

     total cpu time spent up to now is       38.6 secs

     total energy              =    -926.01578682 Ry
     Harris-Foulkes estimate   =    -926.01578683 Ry
     estimated scf accuracy    <       0.00000004 Ry

     iteration # 18     ecut=   120.00 Ry     beta= 0.70
     Davidson diagonalization with overlap
     ethr =  3.73E-11,  avg # of iterations =  2.8

     total cpu time spent up to now is       40.2 secs

     total energy              =    -926.01578682 Ry
     Harris-Foulkes estimate   =    -926.01578683 Ry
     estimated scf accuracy    <       0.00000003 Ry

     iteration # 19     ecut=   120.00 Ry     beta= 0.70
     Davidson diagonalization with overlap
     ethr =  2.42E-11,  avg # of iterations =  4.0

     total cpu time spent up to now is       42.4 secs

     total energy              =    -926.01578682 Ry
     Harris-Foulkes estimate   =    -926.01578683 Ry
     estimated scf accuracy    <          2.6E-09 Ry

     iteration # 20     ecut=   120.00 Ry     beta= 0.70
     Davidson diagonalization with overlap
     ethr =  2.29E-12,  avg # of iterations =  3.8

     total cpu time spent up to now is       44.0 secs

     total energy              =    -926.01578682 Ry
     Harris-Foulkes estimate   =    -926.01578683 Ry
     estimated scf accuracy    <          1.4E-09 Ry

     iteration # 21     ecut=   120.00 Ry     beta= 0.70
     Davidson diagonalization with overlap
     ethr =  1.24E-12,  avg # of iterations =  4.5

     total cpu time spent up to now is       46.4 secs

     total energy              =    -926.01578683 Ry
     Harris-Foulkes estimate   =    -926.01578683 Ry
     estimated scf accuracy    <          1.3E-10 Ry

     iteration # 22     ecut=   120.00 Ry     beta= 0.70
     Davidson diagonalization with overlap
     ethr =  1.13E-13,  avg # of iterations =  3.2

     total cpu time spent up to now is       47.9 secs

     End of self-consistent calculation

          k = 0.0000 0.0000 0.0000 ( 29317 PWs)   bands (ev):

   -61.0224 -61.0206 -61.0134 -61.0116 -34.9993 -34.9971 -34.9897 -34.9852
   -34.9170 -34.8699 -34.8519 -34.8221 -34.8200 -34.8067 -34.7931 -34.7909
   -14.2360 -14.1224 -13.2495 -13.1064 -13.0372 -13.0302 -12.6811 -12.6757
   -12.5451 -12.5391  -1.0885  -1.0779  -1.0076  -0.9009  -0.8009  -0.3984
     0.2552   0.3452   0.5285   0.6099   0.7458   0.7887   0.9003   0.9443
     1.0056   1.0347   1.3003   1.3359   1.4349   1.4874   1.5937   1.6084
     1.8034   2.0386   2.1722   2.2004   2.3143   2.4936   2.4954   2.5858

          k = 0.0000 0.2548 0.0000 ( 29267 PWs)   bands (ev):

   -61.0223 -61.0206 -61.0134 -61.0116 -35.0000 -34.9978 -34.9912 -34.9866
   -34.9168 -34.8698 -34.8519 -34.8221 -34.8199 -34.8067 -34.7931 -34.7909
   -14.1890 -14.0833 -13.2057 -13.0891 -13.0360 -13.0150 -12.6969 -12.6723
   -12.5482 -12.5191  -1.1177  -1.1066  -1.0319  -0.9327  -0.9038  -0.5572
    -0.4183  -0.1836  -0.1425  -0.0080   0.4394   0.5655   0.6226   0.9870
     1.0917   1.3021   1.4572   1.4743   1.6126   1.6827   1.8086   1.9030
     2.1650   2.1731   2.1821   2.3512   2.4015   2.5966   2.6713   2.7526

          k = 0.3333 0.0000 0.0000 ( 29324 PWs)   bands (ev):

   -61.0187 -61.0170 -61.0142 -61.0125 -34.9938 -34.9918 -34.9881 -34.9846
   -34.9137 -34.8906 -34.8772 -34.8690 -34.8315 -34.8255 -34.8125 -34.8048
   -13.7104 -13.5828 -13.1592 -13.0014 -12.9969 -12.9886 -12.6238 -12.6236
   -12.5878 -12.5633  -1.5523  -1.4811  -0.8056  -0.7490  -0.7102  -0.3381
    -0.2456   0.1121   0.1314   0.4163   0.4295   0.4779   0.8006   0.9170
     0.9620   0.9958   1.0129   1.0999   1.2548   1.2641   1.4480   1.4907
     1.5485   1.9354   2.2323   2.3036   2.4265   2.5808   2.7700   2.7937

          k = 0.3333 0.2548 0.0000 ( 29311 PWs)   bands (ev):

   -61.0187 -61.0170 -61.0142 -61.0125 -34.9947 -34.9926 -34.9893 -34.9859
   -34.9135 -34.8905 -34.8770 -34.8689 -34.8315 -34.8255 -34.8126 -34.8048
   -13.6692 -13.5536 -13.1279 -12.9995 -12.9881 -12.9754 -12.6330 -12.6134
   -12.5587 -12.5363  -1.5507  -1.4784  -0.8432  -0.8039  -0.7814  -0.4430
    -0.3907  -0.2768  -0.1757  -0.0076   0.0600   0.2046   0.5528   0.5973
     0.6608   0.7428   0.8314   0.9294   1.0045   1.4485   1.6867   1.8551
     2.0719   2.1397   2.4513   2.6732   2.6827   2.8179   2.9024   2.9191

     highest occupied level (ev):     2.9191

!    total energy              =    -926.01578683 Ry
     Harris-Foulkes estimate   =    -926.01578683 Ry
     estimated scf accuracy    <          8.1E-11 Ry

     The total energy is the sum of the following terms:

     one-electron contribution =    -627.18430246 Ry
     hartree contribution      =     350.38511678 Ry
     xc contribution           =    -178.13989054 Ry
     ewald contribution        =    -471.07671060 Ry

     convergence has been achieved in  22 iterations

     Forces acting on atoms (cartesian axes, Ry/au):

     atom    1 type  1   force =     0.00000000    0.00011183   -0.00009940
     atom    2 type  1   force =     0.00000000   -0.00011183    0.00009940
     atom    3 type  1   force =     0.00000000   -0.00011183   -0.00009940
     atom    4 type  1   force =     0.00000000    0.00011183    0.00009940
     atom    5 type  2   force =     0.00000000    0.00017936    0.00007450
     atom    6 type  2   force =     0.00000000   -0.00017936   -0.00007450
     atom    7 type  2   force =     0.00000000   -0.00017936    0.00007450
     atom    8 type  2   force =     0.00000000    0.00017936   -0.00007450
     atom    9 type  2   force =     0.00000000    0.00000608    0.00010965
     atom   10 type  2   force =     0.00000000   -0.00000608   -0.00010965
     atom   11 type  2   force =     0.00000000   -0.00000608    0.00010965
     atom   12 type  2   force =     0.00000000   -0.00021215    0.00000000
     atom   13 type  2   force =     0.00000000    0.00021215   -0.00000000
     atom   14 type  2   force =     0.00000000    0.00000608   -0.00010965

     Total force =     0.000615     Total SCF correction =     0.000031


     Computing stress (Cartesian axis) and pressure

          total   stress  (Ry/bohr**3)                   (kbar)     P=    2.04
   0.00001367   0.00000000   0.00000000          2.01      0.00      0.00
   0.00000000   0.00001387   0.00000000          0.00      2.04      0.00
   0.00000000   0.00000000   0.00001413          0.00      0.00      2.08


     BFGS Geometry Optimization

     number of scf cycles    =   1
     number of bfgs steps    =   0

     enthalpy new            =    -926.0157868250 Ry

     new trust radius        =       0.0025663175 bohr
     new conv_thr            =            1.0E-10 Ry

     new unit-cell volume =   1321.49919 a.u.^3 (   195.82597 Ang^3 )
     density =      3.08456 g/cm^3

CELL_PARAMETERS (alat=  6.76758343)
   1.000341752   0.000000000   0.000000000
   0.000000000   1.308828234   0.000000000
   0.000000000   0.000000000   3.256379371

ATOMIC_POSITIONS (crystal)
V        0.000000000   0.388526181   0.647725729
V        0.500000007   0.611473832   0.852274292
V        0.500000007   0.611473832   0.147725722
V        0.000000000   0.388526181   0.352274285
O        0.500000007   0.493632495   0.681224543
O        0.000000000   0.506367519   0.818775479
O        0.000000000   0.506367519   0.181224535
O        0.500000007   0.493632495   0.318775472
O        0.000000000   0.048915232   0.356801939
O        0.500000007   0.951084782   0.143198068
O        0.500000007   0.951084782   0.856801946
O        0.500000007   0.500568980   0.000000000
O        0.000000000   0.499431033   0.500000007
O        0.000000000   0.048915232   0.643198075



     Writing output data file v2o5.save/
     NEW-OLD atomic charge density approx. for the potential
     extrapolated charge  112.11659, renormalised to  112.00000

     total cpu time spent up to now is       53.1 secs

     Self-consistent Calculation

     iteration #  1     ecut=   120.00 Ry     beta= 0.70
     Davidson diagonalization with overlap
     ethr =  1.00E-06,  avg # of iterations =  5.0

     total cpu time spent up to now is       56.3 secs

     total energy              =    -926.01103363 Ry
     Harris-Foulkes estimate   =    -925.48066472 Ry
     estimated scf accuracy    <       0.00469528 Ry

     iteration #  2     ecut=   120.00 Ry     beta= 0.70
     Davidson diagonalization with overlap
     ethr =  4.19E-06,  avg # of iterations =  6.0

     total cpu time spent up to now is       59.9 secs

     total energy              =    -926.00473838 Ry
     Harris-Foulkes estimate   =    -926.03281917 Ry
     estimated scf accuracy    <       0.15650500 Ry

     iteration #  3     ecut=   120.00 Ry     beta= 0.70
     Davidson diagonalization with overlap
     ethr =  4.19E-06,  avg # of iterations =  5.0

     total cpu time spent up to now is       63.3 secs

     total energy              =    -926.01589614 Ry
     Harris-Foulkes estimate   =    -926.01623552 Ry
     estimated scf accuracy    <       0.00261616 Ry

     iteration #  4     ecut=   120.00 Ry     beta= 0.70
     Davidson diagonalization with overlap
     ethr =  2.34E-06,  avg # of iterations =  1.0

     total cpu time spent up to now is       64.7 secs

     total energy              =    -926.01570531 Ry
     Harris-Foulkes estimate   =    -926.01594108 Ry
     estimated scf accuracy    <       0.00187421 Ry

     iteration #  5     ecut=   120.00 Ry     beta= 0.70
     Davidson diagonalization with overlap
     ethr =  1.67E-06,  avg # of iterations =  2.0

     total cpu time spent up to now is       66.2 secs

     total energy              =    -926.01575414 Ry
     Harris-Foulkes estimate   =    -926.01576114 Ry
     estimated scf accuracy    <       0.00096133 Ry

     iteration #  6     ecut=   120.00 Ry     beta= 0.70
     Davidson diagonalization with overlap
     ethr =  8.58E-07,  avg # of iterations =  1.0

     total cpu time spent up to now is       67.6 secs

     total energy              =    -926.01577740 Ry
     Harris-Foulkes estimate   =    -926.01577684 Ry
     estimated scf accuracy    <       0.00086618 Ry

     iteration #  7     ecut=   120.00 Ry     beta= 0.70
     Davidson diagonalization with overlap
     ethr =  7.73E-07,  avg # of iterations =  1.0

     total cpu time spent up to now is       69.2 secs

     total energy              =    -926.01578517 Ry
     Harris-Foulkes estimate   =    -926.01578819 Ry
     estimated scf accuracy    <       0.00073632 Ry

     iteration #  8     ecut=   120.00 Ry     beta= 0.70
     Davidson diagonalization with overlap
     ethr =  6.57E-07,  avg # of iterations =  1.0

     total cpu time spent up to now is       70.5 secs

     total energy              =    -926.01578684 Ry
     Harris-Foulkes estimate   =    -926.01579409 Ry
     estimated scf accuracy    <       0.00064497 Ry

     iteration #  9     ecut=   120.00 Ry     beta= 0.70
     Davidson diagonalization with overlap
     ethr =  5.76E-07,  avg # of iterations =  1.0

     total cpu time spent up to now is       71.8 secs

     total energy              =    -926.01578037 Ry
     Harris-Foulkes estimate   =    -926.01579382 Ry
     estimated scf accuracy    <       0.00055353 Ry

     iteration # 10     ecut=   120.00 Ry     beta= 0.70
     Davidson diagonalization with overlap
     ethr =  4.94E-07,  avg # of iterations =  1.0

     total cpu time spent up to now is       73.2 secs

     total energy              =    -926.01569483 Ry
     Harris-Foulkes estimate   =    -926.01578701 Ry
     estimated scf accuracy    <       0.00045920 Ry

     iteration # 11     ecut=   120.00 Ry     beta= 0.70
     Davidson diagonalization with overlap
     ethr =  4.10E-07,  avg # of iterations =  4.5

     total cpu time spent up to now is       75.4 secs

     total energy              =    -926.01580813 Ry
     Harris-Foulkes estimate   =    -926.01580919 Ry
     estimated scf accuracy    <       0.00011246 Ry

     iteration # 12     ecut=   120.00 Ry     beta= 0.70
     Davidson diagonalization with overlap
     ethr =  1.00E-07,  avg # of iterations =  2.5

     total cpu time spent up to now is       77.0 secs

     total energy              =    -926.01581522 Ry
     Harris-Foulkes estimate   =    -926.01581089 Ry
     estimated scf accuracy    <       0.00011185 Ry

     iteration # 13     ecut=   120.00 Ry     beta= 0.70
     Davidson diagonalization with overlap
     ethr =  9.99E-08,  avg # of iterations =  1.0

     total cpu time spent up to now is       78.3 secs

     total energy              =    -926.01580959 Ry
     Harris-Foulkes estimate   =    -926.01581623 Ry
     estimated scf accuracy    <       0.00012841 Ry

     iteration # 14     ecut=   120.00 Ry     beta= 0.70
     Davidson diagonalization with overlap
     ethr =  9.99E-08,  avg # of iterations =  5.0

     total cpu time spent up to now is       81.2 secs

     total energy              =    -926.01578725 Ry
     Harris-Foulkes estimate   =    -926.01588954 Ry
     estimated scf accuracy    <       0.00064060 Ry

     iteration # 15     ecut=   120.00 Ry     beta= 0.70
     Davidson diagonalization with overlap
     ethr =  9.99E-08,  avg # of iterations =  4.5

     total cpu time spent up to now is       83.7 secs

     total energy              =    -926.01578515 Ry
     Harris-Foulkes estimate   =    -926.01581587 Ry
     estimated scf accuracy    <       0.00017275 Ry

     iteration # 16     ecut=   120.00 Ry     beta= 0.70
     Davidson diagonalization with overlap
     ethr =  9.99E-08,  avg # of iterations =  4.0

     total cpu time spent up to now is       85.6 secs

     total energy              =    -926.01579758 Ry
     Harris-Foulkes estimate   =    -926.01580070 Ry
     estimated scf accuracy    <       0.00006025 Ry

     iteration # 17     ecut=   120.00 Ry     beta= 0.70
     Davidson diagonalization with overlap
     ethr =  5.38E-08,  avg # of iterations =  3.5

     total cpu time spent up to now is       87.2 secs

     total energy              =    -926.01579404 Ry
     Harris-Foulkes estimate   =    -926.01579959 Ry
     estimated scf accuracy    <       0.00004390 Ry

     iteration # 18     ecut=   120.00 Ry     beta= 0.70
     Davidson diagonalization with overlap
     ethr =  3.92E-08,  avg # of iterations =  3.8

     total cpu time spent up to now is       89.0 secs

     total energy              =    -926.01579654 Ry
     Harris-Foulkes estimate   =    -926.01579740 Ry
     estimated scf accuracy    <       0.00000767 Ry

     iteration # 19     ecut=   120.00 Ry     beta= 0.70
     Davidson diagonalization with overlap
     ethr =  6.85E-09,  avg # of iterations =  4.0

     total cpu time spent up to now is       90.8 secs

     total energy              =    -926.01579784 Ry
     Harris-Foulkes estimate   =    -926.01579844 Ry
     estimated scf accuracy    <       0.00000253 Ry

     iteration # 20     ecut=   120.00 Ry     beta= 0.70
     Davidson diagonalization with overlap
     ethr =  2.26E-09,  avg # of iterations =  4.0

     total cpu time spent up to now is       92.7 secs

     total energy              =    -926.01579817 Ry
     Harris-Foulkes estimate   =    -926.01579821 Ry
     estimated scf accuracy    <       0.00000012 Ry

     iteration # 21     ecut=   120.00 Ry     beta= 0.70
     Davidson diagonalization with overlap
     ethr =  1.06E-10,  avg # of iterations =  5.0

     total cpu time spent up to now is       95.3 secs

     total energy              =    -926.01579826 Ry
     Harris-Foulkes estimate   =    -926.01579828 Ry
     estimated scf accuracy    <       0.00000011 Ry

     iteration # 22     ecut=   120.00 Ry     beta= 0.70
     Davidson diagonalization with overlap
     ethr =  9.39E-11,  avg # of iterations =  1.0

     total cpu time spent up to now is       96.6 secs

     total energy              =    -926.01579825 Ry
     Harris-Foulkes estimate   =    -926.01579826 Ry
     estimated scf accuracy    <       0.00000005 Ry

     iteration # 23     ecut=   120.00 Ry     beta= 0.70
     Davidson diagonalization with overlap
     ethr =  4.40E-11,  avg # of iterations =  4.0

     total cpu time spent up to now is       99.0 secs

     total energy              =    -926.01579827 Ry
     Harris-Foulkes estimate   =    -926.01579827 Ry
     estimated scf accuracy    <       0.00000002 Ry

     iteration # 24     ecut=   120.00 Ry     beta= 0.70
     Davidson diagonalization with overlap
     ethr =  1.91E-11,  avg # of iterations =  1.0

     total cpu time spent up to now is      100.4 secs

     total energy              =    -926.01579827 Ry
     Harris-Foulkes estimate   =    -926.01579827 Ry
     estimated scf accuracy    <       0.00000002 Ry

     iteration # 25     ecut=   120.00 Ry     beta= 0.70
     Davidson diagonalization with overlap
     ethr =  1.35E-11,  avg # of iterations =  2.5

     total cpu time spent up to now is      101.8 secs

     total energy              =    -926.01579827 Ry
     Harris-Foulkes estimate   =    -926.01579827 Ry
     estimated scf accuracy    <          6.7E-09 Ry

     iteration # 26     ecut=   120.00 Ry     beta= 0.70
     Davidson diagonalization with overlap
     ethr =  6.02E-12,  avg # of iterations =  4.0

     total cpu time spent up to now is      104.1 secs

     total energy              =    -926.01579827 Ry
     Harris-Foulkes estimate   =    -926.01579827 Ry
     estimated scf accuracy    <          7.9E-10 Ry

     iteration # 27     ecut=   120.00 Ry     beta= 0.70
     Davidson diagonalization with overlap
     ethr =  7.06E-13,  avg # of iterations =  3.5

     total cpu time spent up to now is      105.9 secs

     total energy              =    -926.01579827 Ry
     Harris-Foulkes estimate   =    -926.01579827 Ry
     estimated scf accuracy    <          7.7E-10 Ry

     iteration # 28     ecut=   120.00 Ry     beta= 0.70
     Davidson diagonalization with overlap
     ethr =  6.84E-13,  avg # of iterations =  3.0

     total cpu time spent up to now is      107.6 secs

     total energy              =    -926.01579827 Ry
     Harris-Foulkes estimate   =    -926.01579827 Ry
     estimated scf accuracy    <          1.9E-10 Ry

     iteration # 29     ecut=   120.00 Ry     beta= 0.70
     Davidson diagonalization with overlap
     ethr =  1.67E-13,  avg # of iterations =  4.0

     total cpu time spent up to now is      109.8 secs

     End of self-consistent calculation

          k = 0.0000 0.0000 0.0000 ( 29317 PWs)   bands (ev):

   -61.0360 -61.0342 -61.0270 -61.0253 -35.0112 -35.0090 -35.0017 -34.9971
   -34.9299 -34.8831 -34.8652 -34.8355 -34.8333 -34.8202 -34.8066 -34.8044
   -14.2430 -14.1295 -13.2587 -13.1147 -13.0458 -13.0400 -12.6914 -12.6860
   -12.5558 -12.5497  -1.0957  -1.0851  -1.0147  -0.9073  -0.8093  -0.4063
     0.2478   0.3380   0.5210   0.6019   0.7373   0.7801   0.8903   0.9345
     0.9953   1.0243   1.2918   1.3271   1.4260   1.4787   1.5845   1.5988
     1.7943   2.0286   2.1616   2.1897   2.3046   2.4836   2.4854   2.5753

          k = 0.0000 0.2547 0.0000 ( 29267 PWs)   bands (ev):

   -61.0359 -61.0342 -61.0270 -61.0253 -35.0119 -35.0097 -35.0032 -34.9986
   -34.9297 -34.8829 -34.8651 -34.8354 -34.8333 -34.8202 -34.8066 -34.8044
   -14.1961 -14.0906 -13.2150 -13.0974 -13.0446 -13.0248 -12.7073 -12.6827
   -12.5589 -12.5299  -1.1248  -1.1137  -1.0388  -0.9390  -0.9112  -0.5635
    -0.4264  -0.1916  -0.1498  -0.0147   0.4303   0.5575   0.6144   0.9777
     1.0831   1.2934   1.4482   1.4637   1.6020   1.6735   1.7990   1.8931
     2.1543   2.1624   2.1721   2.3414   2.3917   2.5862   2.6609   2.7420

          k = 0.3332 0.0000 0.0000 ( 29324 PWs)   bands (ev):

   -61.0323 -61.0306 -61.0278 -61.0261 -35.0058 -35.0037 -35.0000 -34.9966
   -34.9267 -34.9037 -34.8903 -34.8821 -34.8448 -34.8389 -34.8260 -34.8183
   -13.7185 -13.5911 -13.1686 -13.0104 -13.0061 -12.9985 -12.6343 -12.6341
   -12.5985 -12.5739  -1.5587  -1.4878  -0.8136  -0.7556  -0.7186  -0.3460
    -0.2528   0.1046   0.1246   0.4093   0.4220   0.4705   0.7922   0.9084
     0.9536   0.9862   1.0032   1.0893   1.2439   1.2558   1.4389   1.4811
     1.5393   1.9257   2.2225   2.2935   2.4169   2.5708   2.7599   2.7830

          k = 0.3332 0.2547 0.0000 ( 29311 PWs)   bands (ev):

   -61.0323 -61.0306 -61.0278 -61.0261 -35.0066 -35.0045 -35.0013 -34.9978
   -34.9265 -34.9036 -34.8902 -34.8820 -34.8448 -34.8389 -34.8260 -34.8183
   -13.6774 -13.5620 -13.1373 -13.0085 -12.9974 -12.9854 -12.6436 -12.6241
   -12.5694 -12.5471  -1.5572  -1.4852  -0.8508  -0.8104  -0.7891  -0.4492
    -0.3986  -0.2836  -0.1829  -0.0149   0.0522   0.1966   0.5433   0.5893
     0.6524   0.7342   0.8224   0.9206   0.9955   1.4398   1.6773   1.8455
     2.0615   2.1292   2.4413   2.6632   2.6721   2.8074   2.8915   2.9088

     highest occupied level (ev):     2.9088

!    total energy              =    -926.01579827 Ry
     Harris-Foulkes estimate   =    -926.01579827 Ry
     estimated scf accuracy    <          1.9E-12 Ry

     The total energy is the sum of the following terms:

     one-electron contribution =    -627.41795084 Ry
     hartree contribution      =     350.45415221 Ry
     xc contribution           =    -178.13072678 Ry
     ewald contribution        =    -470.92127285 Ry

     convergence has been achieved in  29 iterations

     Forces acting on atoms (cartesian axes, Ry/au):

     atom    1 type  1   force =    -0.00000000   -0.00063046   -0.00024238
     atom    2 type  1   force =     0.00000000    0.00063046    0.00024238
     atom    3 type  1   force =     0.00000000    0.00063046   -0.00024238
     atom    4 type  1   force =    -0.00000000   -0.00063046    0.00024238
     atom    5 type  2   force =     0.00000000    0.00002246    0.00015928
     atom    6 type  2   force =     0.00000000   -0.00002246   -0.00015928
     atom    7 type  2   force =     0.00000000   -0.00002246    0.00015928
     atom    8 type  2   force =     0.00000000    0.00002246   -0.00015928
     atom    9 type  2   force =    -0.00000000    0.00121399    0.00006747
     atom   10 type  2   force =    -0.00000000   -0.00121399   -0.00006747
     atom   11 type  2   force =     0.00000000   -0.00121399    0.00006747
     atom   12 type  2   force =     0.00000000    0.00011942    0.00000000
     atom   13 type  2   force =    -0.00000000   -0.00011942    0.00000000
     atom   14 type  2   force =     0.00000000    0.00121399   -0.00006747

     Total force =     0.002805     Total SCF correction =     0.000005


     Computing stress (Cartesian axis) and pressure

          total   stress  (Ry/bohr**3)                   (kbar)     P=    0.38
   0.00000334   0.00000000   0.00000000          0.49      0.00      0.00
   0.00000000   0.00000061   0.00000000          0.00      0.09      0.00
   0.00000000   0.00000000   0.00000377          0.00      0.00      0.55


     number of scf cycles    =   2
     number of bfgs steps    =   1

     enthalpy old            =    -926.0157868250 Ry
     enthalpy new            =    -926.0157982685 Ry

     CASE: enthalpy_new < enthalpy_old

     new trust radius        =       0.0024069776 bohr
     new conv_thr            =            1.0E-12 Ry

     new unit-cell volume =   1322.65366 a.u.^3 (   195.99705 Ang^3 )
     density =      3.08187 g/cm^3

CELL_PARAMETERS (alat=  6.76758343)
   1.000652939   0.000000000   0.000000000
   0.000000000   1.309130849   0.000000000
   0.000000000   0.000000000   3.257457433

ATOMIC_POSITIONS (crystal)
V       -0.000000000   0.388447498   0.647709602
V        0.500000007   0.611552515   0.852290419
V        0.500000007   0.611552515   0.147709595
V       -0.000000000   0.388447498   0.352290412
O        0.500000007   0.493648011   0.681235397
O        0.000000000   0.506352003   0.818764625
O        0.000000000   0.506352003   0.181235389
O        0.500000007   0.493648011   0.318764618
O       -0.000000000   0.049082094   0.356808713
O        0.500000007   0.950917920   0.143191294
O        0.500000007   0.950917920   0.856808720
O        0.500000007   0.500570643   0.000000000
O       -0.000000000   0.499429370   0.500000007
O        0.000000000   0.049082094   0.643191301



     Writing output data file v2o5.save/
     NEW-OLD atomic charge density approx. for the potential
     extrapolated charge  112.09775, renormalised to  112.00000

     total cpu time spent up to now is      115.1 secs

     Self-consistent Calculation

     iteration #  1     ecut=   120.00 Ry     beta= 0.70
     Davidson diagonalization with overlap
     ethr =  1.00E-06,  avg # of iterations =  4.8

     total cpu time spent up to now is      118.4 secs

     total energy              =    -926.01267746 Ry
     Harris-Foulkes estimate   =    -925.56675206 Ry
     estimated scf accuracy    <       0.00303345 Ry

     iteration #  2     ecut=   120.00 Ry     beta= 0.70
     Davidson diagonalization with overlap
     ethr =  2.71E-06,  avg # of iterations =  5.8

     total cpu time spent up to now is      121.8 secs

     total energy              =    -926.00880133 Ry
     Harris-Foulkes estimate   =    -926.02687907 Ry
     estimated scf accuracy    <       0.10041630 Ry

     iteration #  3     ecut=   120.00 Ry     beta= 0.70
     Davidson diagonalization with overlap
     ethr =  2.71E-06,  avg # of iterations =  5.0

     total cpu time spent up to now is      125.2 secs

     total energy              =    -926.01587957 Ry
     Harris-Foulkes estimate   =    -926.01611103 Ry
     estimated scf accuracy    <       0.00187073 Ry

     iteration #  4     ecut=   120.00 Ry     beta= 0.70
     Davidson diagonalization with overlap
     ethr =  1.67E-06,  avg # of iterations =  1.0

     total cpu time spent up to now is      126.7 secs

     total energy              =    -926.01573581 Ry
     Harris-Foulkes estimate   =    -926.01590871 Ry
     estimated scf accuracy    <       0.00136276 Ry

     iteration #  5     ecut=   120.00 Ry     beta= 0.70
     Davidson diagonalization with overlap
     ethr =  1.22E-06,  avg # of iterations =  2.0

     total cpu time spent up to now is      128.1 secs

     total energy              =    -926.01577166 Ry
     Harris-Foulkes estimate   =    -926.01577532 Ry
     estimated scf accuracy    <       0.00069373 Ry

     iteration #  6     ecut=   120.00 Ry     beta= 0.70
     Davidson diagonalization with overlap
     ethr =  6.19E-07,  avg # of iterations =  1.0

     total cpu time spent up to now is      129.4 secs

     total energy              =    -926.01578790 Ry
     Harris-Foulkes estimate   =    -926.01578777 Ry
     estimated scf accuracy    <       0.00063173 Ry

     iteration #  7     ecut=   120.00 Ry     beta= 0.70
     Davidson diagonalization with overlap
     ethr =  5.64E-07,  avg # of iterations =  1.0

     total cpu time spent up to now is      130.9 secs

     total energy              =    -926.01580776 Ry
     Harris-Foulkes estimate   =    -926.01579564 Ry
     estimated scf accuracy    <       0.00054630 Ry

     iteration #  8     ecut=   120.00 Ry     beta= 0.70
     Davidson diagonalization with overlap
     ethr =  4.88E-07,  avg # of iterations =  1.0

     total cpu time spent up to now is      132.4 secs

     total energy              =    -926.01579045 Ry
     Harris-Foulkes estimate   =    -926.01581274 Ry
     estimated scf accuracy    <       0.00052753 Ry

     iteration #  9     ecut=   120.00 Ry     beta= 0.70
     Davidson diagonalization with overlap
     ethr =  4.71E-07,  avg # of iterations =  1.0

     total cpu time spent up to now is      133.8 secs

     total energy              =    -926.01580389 Ry
     Harris-Foulkes estimate   =    -926.01579787 Ry
     estimated scf accuracy    <       0.00038467 Ry

     iteration # 10     ecut=   120.00 Ry     beta= 0.70
     Davidson diagonalization with overlap
     ethr =  3.43E-07,  avg # of iterations =  1.0

     total cpu time spent up to now is      135.1 secs

     total energy              =    -926.01558102 Ry
     Harris-Foulkes estimate   =    -926.01580890 Ry
     estimated scf accuracy    <       0.00037382 Ry

     iteration # 11     ecut=   120.00 Ry     beta= 0.70
     Davidson diagonalization with overlap
     ethr =  3.34E-07,  avg # of iterations =  5.0

     total cpu time spent up to now is      138.3 secs

     total energy              =    -926.01540527 Ry
     Harris-Foulkes estimate   =    -926.01621718 Ry
     estimated scf accuracy    <       0.00355279 Ry

     iteration # 12     ecut=   120.00 Ry     beta= 0.70
     Davidson diagonalization with overlap
     ethr =  3.34E-07,  avg # of iterations =  5.0

     total cpu time spent up to now is      141.3 secs

     total energy              =    -926.01581921 Ry
     Harris-Foulkes estimate   =    -926.01581832 Ry
     estimated scf accuracy    <       0.00008422 Ry

     iteration # 13     ecut=   120.00 Ry     beta= 0.70
     Davidson diagonalization with overlap
     ethr =  7.52E-08,  avg # of iterations =  5.0

     total cpu time spent up to now is      144.7 secs

     total energy              =    -926.01584244 Ry
     Harris-Foulkes estimate   =    -926.01628969 Ry
     estimated scf accuracy    <       0.00398387 Ry

     iteration # 14     ecut=   120.00 Ry     beta= 0.70
     Davidson diagonalization with overlap
     ethr =  7.52E-08,  avg # of iterations =  5.0

     total cpu time spent up to now is      148.1 secs

     total energy              =    -926.01585076 Ry
     Harris-Foulkes estimate   =    -926.01593451 Ry
     estimated scf accuracy    <       0.00114506 Ry

     iteration # 15     ecut=   120.00 Ry     beta= 0.70
     Davidson diagonalization with overlap
     ethr =  7.52E-08,  avg # of iterations =  3.5

     total cpu time spent up to now is      150.0 secs

     total energy              =    -926.01577181 Ry
     Harris-Foulkes estimate   =    -926.01586113 Ry
     estimated scf accuracy    <       0.00059456 Ry

     iteration # 16     ecut=   120.00 Ry     beta= 0.70
     Davidson diagonalization with overlap
     ethr =  7.52E-08,  avg # of iterations =  4.0

     total cpu time spent up to now is      152.6 secs

     total energy              =    -926.01580472 Ry
     Harris-Foulkes estimate   =    -926.01580683 Ry
     estimated scf accuracy    <       0.00004455 Ry

     iteration # 17     ecut=   120.00 Ry     beta= 0.70
     Davidson diagonalization with overlap
     ethr =  3.98E-08,  avg # of iterations =  1.0

     total cpu time spent up to now is      154.1 secs

     total energy              =    -926.01580755 Ry
     Harris-Foulkes estimate   =    -926.01580491 Ry
     estimated scf accuracy    <       0.00004002 Ry

     iteration # 18     ecut=   120.00 Ry     beta= 0.70
     Davidson diagonalization with overlap
     ethr =  3.57E-08,  avg # of iterations =  1.0

     total cpu time spent up to now is      155.6 secs

     total energy              =    -926.01579774 Ry
     Harris-Foulkes estimate   =    -926.01580761 Ry
     estimated scf accuracy    <       0.00004512 Ry

     iteration # 19     ecut=   120.00 Ry     beta= 0.70
     Davidson diagonalization with overlap
     ethr =  3.57E-08,  avg # of iterations =  3.2

     total cpu time spent up to now is      157.3 secs

     total energy              =    -926.01579880 Ry
     Harris-Foulkes estimate   =    -926.01580072 Ry
     estimated scf accuracy    <       0.00000547 Ry

     iteration # 20     ecut=   120.00 Ry     beta= 0.70
     Davidson diagonalization with overlap
     ethr =  4.88E-09,  avg # of iterations =  5.0

     total cpu time spent up to now is      160.3 secs

     total energy              =    -926.01580122 Ry
     Harris-Foulkes estimate   =    -926.01580396 Ry
     estimated scf accuracy    <       0.00001550 Ry

     iteration # 21     ecut=   120.00 Ry     beta= 0.70
     Davidson diagonalization with overlap
     ethr =  4.88E-09,  avg # of iterations =  4.0

     total cpu time spent up to now is      162.5 secs

     total energy              =    -926.01580187 Ry
     Harris-Foulkes estimate   =    -926.01580209 Ry
     estimated scf accuracy    <       0.00000145 Ry

     iteration # 22     ecut=   120.00 Ry     beta= 0.70
     Davidson diagonalization with overlap
     ethr =  1.29E-09,  avg # of iterations =  5.0

     total cpu time spent up to now is      164.4 secs

     total energy              =    -926.01580201 Ry
     Harris-Foulkes estimate   =    -926.01580202 Ry
     estimated scf accuracy    <       0.00000037 Ry

     iteration # 23     ecut=   120.00 Ry     beta= 0.70
     Davidson diagonalization with overlap
     ethr =  3.32E-10,  avg # of iterations =  3.2

     total cpu time spent up to now is      166.2 secs

     total energy              =    -926.01580200 Ry
     Harris-Foulkes estimate   =    -926.01580203 Ry
     estimated scf accuracy    <       0.00000020 Ry

     iteration # 24     ecut=   120.00 Ry     beta= 0.70
     Davidson diagonalization with overlap
     ethr =  1.80E-10,  avg # of iterations =  4.0

     total cpu time spent up to now is      167.8 secs

     total energy              =    -926.01580206 Ry
     Harris-Foulkes estimate   =    -926.01580205 Ry
     estimated scf accuracy    <          8.1E-09 Ry

     iteration # 25     ecut=   120.00 Ry     beta= 0.70
     Davidson diagonalization with overlap
     ethr =  7.26E-12,  avg # of iterations =  5.0

     total cpu time spent up to now is      170.9 secs

     total energy              =    -926.01580205 Ry
     Harris-Foulkes estimate   =    -926.01580207 Ry
     estimated scf accuracy    <       0.00000015 Ry

     iteration # 26     ecut=   120.00 Ry     beta= 0.70
     Davidson diagonalization with overlap
     ethr =  7.26E-12,  avg # of iterations =  4.0

     total cpu time spent up to now is      173.5 secs

     total energy              =    -926.01580205 Ry
     Harris-Foulkes estimate   =    -926.01580206 Ry
     estimated scf accuracy    <       0.00000003 Ry

     iteration # 27     ecut=   120.00 Ry     beta= 0.70
     Davidson diagonalization with overlap
     ethr =  7.26E-12,  avg # of iterations =  4.0

     total cpu time spent up to now is      176.3 secs

     total energy              =    -926.01580205 Ry
     Harris-Foulkes estimate   =    -926.01580205 Ry
     estimated scf accuracy    <          7.3E-10 Ry

     iteration # 28     ecut=   120.00 Ry     beta= 0.70
     Davidson diagonalization with overlap
     ethr =  6.51E-13,  avg # of iterations =  4.5

     total cpu time spent up to now is      178.3 secs

     total energy              =    -926.01580205 Ry
     Harris-Foulkes estimate   =    -926.01580205 Ry
     estimated scf accuracy    <          2.7E-11 Ry

     iteration # 29     ecut=   120.00 Ry     beta= 0.70
     Davidson diagonalization with overlap
     ethr =  1.00E-13,  avg # of iterations =  5.0

     total cpu time spent up to now is      180.2 secs

     total energy              =    -926.01580205 Ry
     Harris-Foulkes estimate   =    -926.01580205 Ry
     estimated scf accuracy    <          3.2E-11 Ry

     iteration # 30     ecut=   120.00 Ry     beta= 0.70
     Davidson diagonalization with overlap
     ethr =  1.00E-13,  avg # of iterations =  1.0

     total cpu time spent up to now is      181.6 secs

     total energy              =    -926.01580205 Ry
     Harris-Foulkes estimate   =    -926.01580205 Ry
     estimated scf accuracy    <          1.3E-11 Ry

     iteration # 31     ecut=   120.00 Ry     beta= 0.70
     Davidson diagonalization with overlap
     ethr =  1.00E-13,  avg # of iterations =  1.0

     total cpu time spent up to now is      183.1 secs

     total energy              =    -926.01580205 Ry
     Harris-Foulkes estimate   =    -926.01580205 Ry
     estimated scf accuracy    <          5.6E-12 Ry

     iteration # 32     ecut=   120.00 Ry     beta= 0.70
     Davidson diagonalization with overlap
     ethr =  1.00E-13,  avg # of iterations =  1.0

     total cpu time spent up to now is      184.5 secs

     End of self-consistent calculation

          k = 0.0000 0.0000 0.0000 ( 29317 PWs)   bands (ev):

   -61.0450 -61.0433 -61.0361 -61.0344 -35.0223 -35.0202 -35.0128 -35.0084
   -34.9380 -34.8913 -34.8735 -34.8435 -34.8414 -34.8286 -34.8148 -34.8126
   -14.2454 -14.1320 -13.2645 -13.1177 -13.0491 -13.0463 -12.7031 -12.6981
   -12.5683 -12.5619  -1.0988  -1.0883  -1.0172  -0.9093  -0.8146  -0.4124
     0.2414   0.3268   0.5111   0.5976   0.7277   0.7704   0.8757   0.9212
     0.9842   1.0102   1.2816   1.3131   1.4204   1.4629   1.5736   1.5868
     1.7874   2.0225   2.1496   2.1775   2.3002   2.4742   2.4796   2.5664

          k = 0.0000 0.2546 0.0000 ( 29267 PWs)   bands (ev):

   -61.0450 -61.0432 -61.0361 -61.0344 -35.0230 -35.0208 -35.0143 -35.0098
   -34.9378 -34.8911 -34.8735 -34.8434 -34.8413 -34.8286 -34.8148 -34.8126
   -14.1983 -14.0929 -13.2205 -13.1002 -13.0479 -13.0309 -12.7192 -12.6949
   -12.5717 -12.5430  -1.1281  -1.1170  -1.0421  -0.9413  -0.9164  -0.5711
    -0.4326  -0.1987  -0.1595  -0.0252   0.4186   0.5474   0.6042   0.9651
     1.0703   1.2852   1.4426   1.4561   1.5941   1.6577   1.7860   1.8780
     2.1431   2.1512   2.1657   2.3356   2.3865   2.5771   2.6530   2.7314

          k = 0.3331 0.0000 0.0000 ( 29324 PWs)   bands (ev):

   -61.0414 -61.0396 -61.0369 -61.0352 -35.0169 -35.0149 -35.0113 -35.0079
   -34.9346 -34.9115 -34.8983 -34.8900 -34.8530 -34.8470 -34.8342 -34.8267
   -13.7222 -13.5947 -13.1748 -13.0140 -13.0102 -13.0048 -12.6467 -12.6460
   -12.6115 -12.5862  -1.5601  -1.4893  -0.8179  -0.7582  -0.7240  -0.3501
    -0.2564   0.0990   0.1198   0.4012   0.4125   0.4592   0.7820   0.8972
     0.9420   0.9732   0.9903   1.0754   1.2312   1.2441   1.4297   1.4737
     1.5257   1.9181   2.2137   2.2824   2.4090   2.5607   2.7533   2.7769

          k = 0.3331 0.2546 0.0000 ( 29311 PWs)   bands (ev):

   -61.0414 -61.0396 -61.0369 -61.0352 -35.0178 -35.0157 -35.0125 -35.0091
   -34.9344 -34.9114 -34.8982 -34.8899 -34.8530 -34.8470 -34.8342 -34.8267
   -13.6809 -13.5655 -13.1430 -13.0121 -13.0018 -12.9915 -12.6559 -12.6369
   -12.5822 -12.5603  -1.5585  -1.4866  -0.8554  -0.8136  -0.7947  -0.4561
    -0.4031  -0.2879  -0.1899  -0.0242   0.0424   0.1909   0.5311   0.5820
     0.6436   0.7237   0.8117   0.9103   0.9832   1.4269   1.6680   1.8315
     2.0514   2.1211   2.4310   2.6544   2.6627   2.7973   2.8844   2.9012

     highest occupied level (ev):     2.9012

!    total energy              =    -926.01580205 Ry
     Harris-Foulkes estimate   =    -926.01580205 Ry
     estimated scf accuracy    <          8.8E-13 Ry

     The total energy is the sum of the following terms:

     one-electron contribution =    -627.77841792 Ry
     hartree contribution      =     350.59814239 Ry
     xc contribution           =    -178.12834120 Ry
     ewald contribution        =    -470.70718532 Ry

     convergence has been achieved in  32 iterations

     Forces acting on atoms (cartesian axes, Ry/au):

     atom    1 type  1   force =    -0.00000000    0.00116698   -0.00004772
     atom    2 type  1   force =     0.00000000   -0.00116698    0.00004772
     atom    3 type  1   force =     0.00000000   -0.00116698   -0.00004772
     atom    4 type  1   force =     0.00000000    0.00116698    0.00004772
     atom    5 type  2   force =     0.00000000   -0.00015533    0.00016762
     atom    6 type  2   force =     0.00000000    0.00015533   -0.00016762
     atom    7 type  2   force =     0.00000000    0.00015533    0.00016762
     atom    8 type  2   force =    -0.00000000   -0.00015533   -0.00016762
     atom    9 type  2   force =     0.00000000   -0.00009242    0.00010810
     atom   10 type  2   force =     0.00000000    0.00009242   -0.00010810
     atom   11 type  2   force =     0.00000000    0.00009242    0.00010810
     atom   12 type  2   force =     0.00000000    0.00036822   -0.00000000
     atom   13 type  2   force =     0.00000000   -0.00036822   -0.00000000
     atom   14 type  2   force =     0.00000000   -0.00009242   -0.00010810

     Total force =     0.002453     Total SCF correction =     0.000002


     Computing stress (Cartesian axis) and pressure

          total   stress  (Ry/bohr**3)                   (kbar)     P=   -0.03
  -0.00000663   0.00000000   0.00000000         -0.98      0.00      0.00
   0.00000000   0.00001081   0.00000000          0.00      1.59      0.00
   0.00000000   0.00000000  -0.00000486          0.00      0.00     -0.72


     number of scf cycles    =   3
     number of bfgs steps    =   2

     enthalpy old            =    -926.0157982685 Ry
     enthalpy new            =    -926.0158020520 Ry

     CASE: enthalpy_new < enthalpy_old

     new trust radius        =       0.0015987928 bohr
     new conv_thr            =            1.0E-12 Ry

     new unit-cell volume =   1322.84107 a.u.^3 (   196.02482 Ang^3 )
     density =      3.08143 g/cm^3

CELL_PARAMETERS (alat=  6.76758343)
   1.000595124   0.000000000   0.000000000
   0.000000000   1.309418604   0.000000000
   0.000000000   0.000000000   3.257391251

ATOMIC_POSITIONS (crystal)
V       -0.000000000   0.388507350   0.647702428
V        0.500000007   0.611492663   0.852297593
V        0.500000007   0.611492663   0.147702421
V       -0.000000000   0.388507350   0.352297586
O        0.500000007   0.493637918   0.681244542
O        0.000000000   0.506362096   0.818755480
O        0.000000000   0.506362096   0.181244534
O        0.500000007   0.493637918   0.318755473
O       -0.000000000   0.049141631   0.356813991
O        0.500000007   0.950858383   0.143186016
O        0.500000007   0.950858383   0.856813998
O        0.500000007   0.500605472   0.000000000
O       -0.000000000   0.499394541   0.500000007
O        0.000000000   0.049141631   0.643186023



     Writing output data file v2o5.save/
     NEW-OLD atomic charge density approx. for the potential
     extrapolated charge  112.01587, renormalised to  112.00000

     total cpu time spent up to now is      189.7 secs

     Self-consistent Calculation

     iteration #  1     ecut=   120.00 Ry     beta= 0.70
     Davidson diagonalization with overlap
     ethr =  1.00E-06,  avg # of iterations =  2.0

     Threshold (ethr) on eigenvalues was too large:
     Diagonalizing with lowered threshold

     Davidson diagonalization with overlap
     ethr =  2.02E-08,  avg # of iterations =  4.0

     total cpu time spent up to now is      194.2 secs

     total energy              =    -926.01572690 Ry
     Harris-Foulkes estimate   =    -925.94285676 Ry
     estimated scf accuracy    <       0.00007846 Ry

     iteration #  2     ecut=   120.00 Ry     beta= 0.70
     Davidson diagonalization with overlap
     ethr =  7.01E-08,  avg # of iterations =  5.8

     total cpu time spent up to now is      197.6 secs

     total energy              =    -926.01564081 Ry
     Harris-Foulkes estimate   =    -926.01608298 Ry
     estimated scf accuracy    <       0.00238327 Ry

     iteration #  3     ecut=   120.00 Ry     beta= 0.70
     Davidson diagonalization with overlap
     ethr =  7.01E-08,  avg # of iterations =  5.0

     total cpu time spent up to now is      200.9 secs

     total energy              =    -926.01580909 Ry
     Harris-Foulkes estimate   =    -926.01581571 Ry
     estimated scf accuracy    <       0.00004950 Ry

     iteration #  4     ecut=   120.00 Ry     beta= 0.70
     Davidson diagonalization with overlap
     ethr =  4.42E-08,  avg # of iterations =  1.0

     total cpu time spent up to now is      202.3 secs

     total energy              =    -926.01580425 Ry
     Harris-Foulkes estimate   =    -926.01580996 Ry
     estimated scf accuracy    <       0.00003515 Ry

     iteration #  5     ecut=   120.00 Ry     beta= 0.70
     Davidson diagonalization with overlap
     ethr =  3.14E-08,  avg # of iterations =  3.0

     total cpu time spent up to now is      204.0 secs

     total energy              =    -926.01580598 Ry
     Harris-Foulkes estimate   =    -926.01580600 Ry
     estimated scf accuracy    <       0.00001223 Ry

     iteration #  6     ecut=   120.00 Ry     beta= 0.70
     Davidson diagonalization with overlap
     ethr =  1.09E-08,  avg # of iterations =  4.0

     total cpu time spent up to now is      206.1 secs

     total energy              =    -926.01580672 Ry
     Harris-Foulkes estimate   =    -926.01580727 Ry
     estimated scf accuracy    <       0.00000449 Ry

     iteration #  7     ecut=   120.00 Ry     beta= 0.70
     Davidson diagonalization with overlap
     ethr =  4.01E-09,  avg # of iterations =  4.0

     total cpu time spent up to now is      208.1 secs

     total energy              =    -926.01580784 Ry
     Harris-Foulkes estimate   =    -926.01580782 Ry
     estimated scf accuracy    <       0.00000190 Ry

     iteration #  8     ecut=   120.00 Ry     beta= 0.70
     Davidson diagonalization with overlap
     ethr =  1.69E-09,  avg # of iterations =  3.2

     total cpu time spent up to now is      209.7 secs

     total energy              =    -926.01580778 Ry
     Harris-Foulkes estimate   =    -926.01580790 Ry
     estimated scf accuracy    <       0.00000248 Ry

     iteration #  9     ecut=   120.00 Ry     beta= 0.70
     Davidson diagonalization with overlap
     ethr =  1.69E-09,  avg # of iterations =  2.0

     total cpu time spent up to now is      211.2 secs

     total energy              =    -926.01580746 Ry
     Harris-Foulkes estimate   =    -926.01580781 Ry
     estimated scf accuracy    <       0.00000227 Ry

     iteration # 10     ecut=   120.00 Ry     beta= 0.70
     Davidson diagonalization with overlap
     ethr =  1.69E-09,  avg # of iterations =  4.5

     total cpu time spent up to now is      213.7 secs

     total energy              =    -926.01580795 Ry
     Harris-Foulkes estimate   =    -926.01580828 Ry
     estimated scf accuracy    <       0.00000547 Ry

     iteration # 11     ecut=   120.00 Ry     beta= 0.70
     Davidson diagonalization with overlap
     ethr =  1.69E-09,  avg # of iterations =  1.0

     total cpu time spent up to now is      215.0 secs

     total energy              =    -926.01580720 Ry
     Harris-Foulkes estimate   =    -926.01580799 Ry
     estimated scf accuracy    <       0.00000460 Ry

     iteration # 12     ecut=   120.00 Ry     beta= 0.70
     Davidson diagonalization with overlap
     ethr =  1.69E-09,  avg # of iterations =  5.0

     total cpu time spent up to now is      218.3 secs

     total energy              =    -926.01581189 Ry
     Harris-Foulkes estimate   =    -926.01581040 Ry
     estimated scf accuracy    <       0.00002192 Ry

     iteration # 13     ecut=   120.00 Ry     beta= 0.70
     Davidson diagonalization with overlap
     ethr =  1.69E-09,  avg # of iterations =  4.0

     total cpu time spent up to now is      219.9 secs

     total energy              =    -926.01581109 Ry
     Harris-Foulkes estimate   =    -926.01581202 Ry
     estimated scf accuracy    <       0.00003024 Ry

     iteration # 14     ecut=   120.00 Ry     beta= 0.70
     Davidson diagonalization with overlap
     ethr =  1.69E-09,  avg # of iterations =  4.0

     total cpu time spent up to now is      222.5 secs

     total energy              =    -926.01580492 Ry
     Harris-Foulkes estimate   =    -926.01581165 Ry
     estimated scf accuracy    <       0.00003531 Ry

     iteration # 15     ecut=   120.00 Ry     beta= 0.70
     Davidson diagonalization with overlap
     ethr =  1.69E-09,  avg # of iterations =  5.0

     total cpu time spent up to now is      225.8 secs

     total energy              =    -926.01580720 Ry
     Harris-Foulkes estimate   =    -926.01580765 Ry
     estimated scf accuracy    <       0.00000167 Ry

     iteration # 16     ecut=   120.00 Ry     beta= 0.70
     Davidson diagonalization with overlap
     ethr =  1.49E-09,  avg # of iterations =  3.0

     total cpu time spent up to now is      227.8 secs

     total energy              =    -926.01580735 Ry
     Harris-Foulkes estimate   =    -926.01580736 Ry
     estimated scf accuracy    <       0.00000008 Ry

     iteration # 17     ecut=   120.00 Ry     beta= 0.70
     Davidson diagonalization with overlap
     ethr =  6.75E-11,  avg # of iterations =  5.8

     total cpu time spent up to now is      231.0 secs

     total energy              =    -926.01580743 Ry
     Harris-Foulkes estimate   =    -926.01580744 Ry
     estimated scf accuracy    <       0.00000010 Ry

     iteration # 18     ecut=   120.00 Ry     beta= 0.70
     Davidson diagonalization with overlap
     ethr =  6.75E-11,  avg # of iterations =  1.0

     total cpu time spent up to now is      232.6 secs

     total energy              =    -926.01580742 Ry
     Harris-Foulkes estimate   =    -926.01580743 Ry
     estimated scf accuracy    <       0.00000008 Ry

     iteration # 19     ecut=   120.00 Ry     beta= 0.70
     Davidson diagonalization with overlap
     ethr =  6.75E-11,  avg # of iterations =  1.0

     total cpu time spent up to now is      234.1 secs

     total energy              =    -926.01580742 Ry
     Harris-Foulkes estimate   =    -926.01580742 Ry
     estimated scf accuracy    <       0.00000005 Ry

     iteration # 20     ecut=   120.00 Ry     beta= 0.70
     Davidson diagonalization with overlap
     ethr =  4.33E-11,  avg # of iterations =  2.0

     total cpu time spent up to now is      235.7 secs

     total energy              =    -926.01580742 Ry
     Harris-Foulkes estimate   =    -926.01580742 Ry
     estimated scf accuracy    <       0.00000004 Ry

     iteration # 21     ecut=   120.00 Ry     beta= 0.70
     Davidson diagonalization with overlap
     ethr =  3.19E-11,  avg # of iterations =  3.8

     total cpu time spent up to now is      237.9 secs

     total energy              =    -926.01580742 Ry
     Harris-Foulkes estimate   =    -926.01580742 Ry
     estimated scf accuracy    <          3.4E-09 Ry

     iteration # 22     ecut=   120.00 Ry     beta= 0.70
     Davidson diagonalization with overlap
     ethr =  3.07E-12,  avg # of iterations =  4.5

     total cpu time spent up to now is      240.5 secs

     total energy              =    -926.01580743 Ry
     Harris-Foulkes estimate   =    -926.01580743 Ry
     estimated scf accuracy    <          4.4E-09 Ry

     iteration # 23     ecut=   120.00 Ry     beta= 0.70
     Davidson diagonalization with overlap
     ethr =  3.07E-12,  avg # of iterations =  1.0

     total cpu time spent up to now is      241.9 secs

     total energy              =    -926.01580743 Ry
     Harris-Foulkes estimate   =    -926.01580743 Ry
     estimated scf accuracy    <          2.8E-09 Ry

     iteration # 24     ecut=   120.00 Ry     beta= 0.70
     Davidson diagonalization with overlap
     ethr =  2.47E-12,  avg # of iterations =  4.0

     total cpu time spent up to now is      244.5 secs

     total energy              =    -926.01580743 Ry
     Harris-Foulkes estimate   =    -926.01580743 Ry
     estimated scf accuracy    <          1.0E-09 Ry

     iteration # 25     ecut=   120.00 Ry     beta= 0.70
     Davidson diagonalization with overlap
     ethr =  9.03E-13,  avg # of iterations =  1.8

     total cpu time spent up to now is      246.1 secs

     total energy              =    -926.01580743 Ry
     Harris-Foulkes estimate   =    -926.01580743 Ry
     estimated scf accuracy    <          9.8E-10 Ry

     iteration # 26     ecut=   120.00 Ry     beta= 0.70
     Davidson diagonalization with overlap
     ethr =  8.79E-13,  avg # of iterations =  1.0

     total cpu time spent up to now is      247.4 secs

     total energy              =    -926.01580743 Ry
     Harris-Foulkes estimate   =    -926.01580743 Ry
     estimated scf accuracy    <          6.9E-10 Ry

     iteration # 27     ecut=   120.00 Ry     beta= 0.70
     Davidson diagonalization with overlap
     ethr =  6.15E-13,  avg # of iterations =  1.0

     total cpu time spent up to now is      248.6 secs

     total energy              =    -926.01580743 Ry
     Harris-Foulkes estimate   =    -926.01580743 Ry
     estimated scf accuracy    <          4.3E-10 Ry

     iteration # 28     ecut=   120.00 Ry     beta= 0.70
     Davidson diagonalization with overlap
     ethr =  3.84E-13,  avg # of iterations =  4.0

     total cpu time spent up to now is      250.0 secs

     total energy              =    -926.01580743 Ry
     Harris-Foulkes estimate   =    -926.01580743 Ry
     estimated scf accuracy    <          2.5E-10 Ry

     iteration # 29     ecut=   120.00 Ry     beta= 0.70
     Davidson diagonalization with overlap
     ethr =  2.19E-13,  avg # of iterations =  5.0

     total cpu time spent up to now is      252.6 secs

     total energy              =    -926.01580743 Ry
     Harris-Foulkes estimate   =    -926.01580743 Ry
     estimated scf accuracy    <          5.6E-10 Ry

     iteration # 30     ecut=   120.00 Ry     beta= 0.70
     Davidson diagonalization with overlap
     ethr =  2.19E-13,  avg # of iterations =  4.0

     total cpu time spent up to now is      254.7 secs

     total energy              =    -926.01580743 Ry
     Harris-Foulkes estimate   =    -926.01580743 Ry
     estimated scf accuracy    <          5.3E-11 Ry

     iteration # 31     ecut=   120.00 Ry     beta= 0.70
     Davidson diagonalization with overlap
     ethr =  1.00E-13,  avg # of iterations =  1.2

     total cpu time spent up to now is      256.2 secs

     total energy              =    -926.01580743 Ry
     Harris-Foulkes estimate   =    -926.01580743 Ry
     estimated scf accuracy    <          6.2E-11 Ry

     iteration # 32     ecut=   120.00 Ry     beta= 0.70
     Davidson diagonalization with overlap
     ethr =  1.00E-13,  avg # of iterations =  2.8

     total cpu time spent up to now is      257.6 secs

     total energy              =    -926.01580743 Ry
     Harris-Foulkes estimate   =    -926.01580743 Ry
     estimated scf accuracy    <          3.6E-11 Ry

     iteration # 33     ecut=   120.00 Ry     beta= 0.70
     Davidson diagonalization with overlap
     ethr =  1.00E-13,  avg # of iterations =  1.0

     total cpu time spent up to now is      258.8 secs

     total energy              =    -926.01580743 Ry
     Harris-Foulkes estimate   =    -926.01580743 Ry
     estimated scf accuracy    <          6.3E-11 Ry

     iteration # 34     ecut=   120.00 Ry     beta= 0.70
     Davidson diagonalization with overlap
     ethr =  1.00E-13,  avg # of iterations =  1.0

     total cpu time spent up to now is      260.2 secs

     total energy              =    -926.01580743 Ry
     Harris-Foulkes estimate   =    -926.01580743 Ry
     estimated scf accuracy    <          8.1E-11 Ry

     iteration # 35     ecut=   120.00 Ry     beta= 0.70
     Davidson diagonalization with overlap
     ethr =  1.00E-13,  avg # of iterations =  1.0

     total cpu time spent up to now is      261.5 secs

     total energy              =    -926.01580743 Ry
     Harris-Foulkes estimate   =    -926.01580743 Ry
     estimated scf accuracy    <          8.7E-11 Ry

     iteration # 36     ecut=   120.00 Ry     beta= 0.70
     Davidson diagonalization with overlap
     ethr =  1.00E-13,  avg # of iterations =  1.0

     total cpu time spent up to now is      263.1 secs

     total energy              =    -926.01580743 Ry
     Harris-Foulkes estimate   =    -926.01580743 Ry
     estimated scf accuracy    <          1.1E-10 Ry

     iteration # 37     ecut=   120.00 Ry     beta= 0.70
     Davidson diagonalization with overlap
     ethr =  1.00E-13,  avg # of iterations =  1.0

     total cpu time spent up to now is      264.5 secs

     total energy              =    -926.01580743 Ry
     Harris-Foulkes estimate   =    -926.01580743 Ry
     estimated scf accuracy    <          1.1E-10 Ry

     iteration # 38     ecut=   120.00 Ry     beta= 0.70
     Davidson diagonalization with overlap
     ethr =  1.00E-13,  avg # of iterations =  3.8

     total cpu time spent up to now is      266.6 secs

     total energy              =    -926.01580743 Ry
     Harris-Foulkes estimate   =    -926.01580743 Ry
     estimated scf accuracy    <          1.9E-12 Ry

     iteration # 39     ecut=   120.00 Ry     beta= 0.70
     Davidson diagonalization with overlap
     ethr =  1.00E-13,  avg # of iterations =  1.5

     total cpu time spent up to now is      268.1 secs

     End of self-consistent calculation

          k = 0.0000 0.0000 0.0000 ( 29317 PWs)   bands (ev):

   -61.0469 -61.0452 -61.0380 -61.0363 -35.0233 -35.0211 -35.0139 -35.0094
   -34.9403 -34.8936 -34.8758 -34.8457 -34.8435 -34.8309 -34.8169 -34.8148
   -14.2485 -14.1349 -13.2673 -13.1203 -13.0523 -13.0496 -12.7036 -12.6983
   -12.5685 -12.5624  -1.1019  -1.0913  -1.0213  -0.9127  -0.8181  -0.4148
     0.2390   0.3261   0.5094   0.5949   0.7270   0.7696   0.8755   0.9210
     0.9836   1.0099   1.2800   1.3139   1.4165   1.4641   1.5726   1.5864
     1.7859   2.0196   2.1490   2.1770   2.2977   2.4732   2.4773   2.5647

          k = 0.0000 0.2546 0.0000 ( 29267 PWs)   bands (ev):

   -61.0469 -61.0452 -61.0380 -61.0363 -35.0240 -35.0218 -35.0153 -35.0108
   -34.9401 -34.8934 -34.8758 -34.8456 -34.8435 -34.8309 -34.8169 -34.8148
   -14.2016 -14.0960 -13.2236 -13.1029 -13.0511 -13.0344 -12.7195 -12.6951
   -12.5720 -12.5431  -1.1310  -1.1199  -1.0456  -0.9445  -0.9195  -0.5716
    -0.4347  -0.1999  -0.1599  -0.0259   0.4187   0.5473   0.6041   0.9648
     1.0705   1.2827   1.4386   1.4541   1.5921   1.6584   1.7855   1.8783
     2.1422   2.1502   2.1628   2.3333   2.3841   2.5751   2.6507   2.7298

          k = 0.3331 0.0000 0.0000 ( 29324 PWs)   bands (ev):

   -61.0433 -61.0416 -61.0389 -61.0371 -35.0179 -35.0159 -35.0122 -35.0088
   -34.9369 -34.9138 -34.9006 -34.8922 -34.8553 -34.8492 -34.8364 -34.8289
   -13.7251 -13.5975 -13.1781 -13.0167 -13.0128 -13.0080 -12.6469 -12.6465
   -12.6115 -12.5867  -1.5634  -1.4925  -0.8216  -0.7612  -0.7276  -0.3524
    -0.2586   0.0972   0.1171   0.3997   0.4111   0.4582   0.7805   0.8966
     0.9416   0.9728   0.9898   1.0750   1.2304   1.2442   1.4290   1.4708
     1.5260   1.9169   2.2122   2.2821   2.4077   2.5598   2.7510   2.7737

          k = 0.3331 0.2546 0.0000 ( 29311 PWs)   bands (ev):

   -61.0433 -61.0416 -61.0389 -61.0371 -35.0187 -35.0167 -35.0135 -35.0100
   -34.9368 -34.9137 -34.9004 -34.8921 -34.8552 -34.8492 -34.8364 -34.8289
   -13.6840 -13.5684 -13.1465 -13.0148 -13.0044 -12.9949 -12.6562 -12.6370
   -12.5824 -12.5604  -1.5618  -1.4898  -0.8588  -0.8162  -0.7978  -0.4570
    -0.4052  -0.2897  -0.1909  -0.0250   0.0418   0.1890   0.5314   0.5802
     0.6425   0.7234   0.8114   0.9091   0.9829   1.4271   1.6655   1.8316
     2.0497   2.1195   2.4299   2.6528   2.6605   2.7957   2.8814   2.8990

     highest occupied level (ev):     2.8990

!    total energy              =    -926.01580743 Ry
     Harris-Foulkes estimate   =    -926.01580743 Ry
     estimated scf accuracy    <          4.4E-13 Ry

     The total energy is the sum of the following terms:

     one-electron contribution =    -627.91656242 Ry
     hartree contribution      =     350.65969789 Ry
     xc contribution           =    -178.12763253 Ry
     ewald contribution        =    -470.63131037 Ry

     convergence has been achieved in  39 iterations

     Forces acting on atoms (cartesian axes, Ry/au):

     atom    1 type  1   force =     0.00000000    0.00039981    0.00005066
     atom    2 type  1   force =     0.00000000   -0.00039981   -0.00005066
     atom    3 type  1   force =    -0.00000000   -0.00039981    0.00005066
     atom    4 type  1   force =    -0.00000000    0.00039981   -0.00005066
     atom    5 type  2   force =     0.00000000   -0.00011560    0.00010553
     atom    6 type  2   force =     0.00000000    0.00011560   -0.00010553
     atom    7 type  2   force =     0.00000000    0.00011560    0.00010553
     atom    8 type  2   force =    -0.00000000   -0.00011560   -0.00010553
     atom    9 type  2   force =     0.00000000    0.00050794    0.00009244
     atom   10 type  2   force =    -0.00000000   -0.00050794   -0.00009244
     atom   11 type  2   force =    -0.00000000   -0.00050794    0.00009244
     atom   12 type  2   force =     0.00000000    0.00021695    0.00000000
     atom   13 type  2   force =     0.00000000   -0.00021695   -0.00000000
     atom   14 type  2   force =     0.00000000    0.00050794   -0.00009244

     Total force =     0.001381     Total SCF correction =     0.000001


     Computing stress (Cartesian axis) and pressure

          total   stress  (Ry/bohr**3)                   (kbar)     P=   -0.15
  -0.00000548   0.00000000   0.00000000         -0.81      0.00      0.00
   0.00000000   0.00000517   0.00000000          0.00      0.76      0.00
   0.00000000   0.00000000  -0.00000282          0.00      0.00     -0.41


     number of scf cycles    =   4
     number of bfgs steps    =   3

     enthalpy old            =    -926.0158020520 Ry
     enthalpy new            =    -926.0158074262 Ry

     CASE: enthalpy_new < enthalpy_old

     new trust radius        =       0.0023978320 bohr
     new conv_thr            =            1.0E-12 Ry

     new unit-cell volume =   1323.22004 a.u.^3 (   196.08098 Ang^3 )
     density =      3.08055 g/cm^3

CELL_PARAMETERS (alat=  6.76758343)
   1.000527074   0.000000000   0.000000000
   0.000000000   1.309850236   0.000000000
   0.000000000   0.000000000   3.257472270

ATOMIC_POSITIONS (crystal)
V       -0.000000000   0.388565547   0.647696333
V        0.500000007   0.611434466   0.852303688
V        0.500000007   0.611434466   0.147696326
V       -0.000000000   0.388565547   0.352303681
O        0.500000007   0.493624554   0.681257354
O        0.000000000   0.506375460   0.818742668
O        0.000000000   0.506375460   0.181257346
O        0.500000007   0.493624554   0.318742661
O       -0.000000000   0.049274889   0.356823119
O        0.500000007   0.950725125   0.143176888
O        0.500000007   0.950725125   0.856823126
O        0.500000007   0.500648082   0.000000000
O       -0.000000000   0.499351931   0.500000007
O        0.000000000   0.049274889   0.643176895



     Writing output data file v2o5.save/
     NEW-OLD atomic charge density approx. for the potential
     extrapolated charge  112.03208, renormalised to  112.00000

     total cpu time spent up to now is      273.4 secs

     Self-consistent Calculation

     iteration #  1     ecut=   120.00 Ry     beta= 0.70
     Davidson diagonalization with overlap
     ethr =  1.00E-06,  avg # of iterations =  3.0

     Threshold (ethr) on eigenvalues was too large:
     Diagonalizing with lowered threshold

     Davidson diagonalization with overlap
     ethr =  6.95E-08,  avg # of iterations =  4.0

     total cpu time spent up to now is      277.9 secs

     total energy              =    -926.01549207 Ry
     Harris-Foulkes estimate   =    -925.86828918 Ry
     estimated scf accuracy    <       0.00030967 Ry

     iteration #  2     ecut=   120.00 Ry     beta= 0.70
     Davidson diagonalization with overlap
     ethr =  2.76E-07,  avg # of iterations =  5.8

     total cpu time spent up to now is      281.5 secs

     total energy              =    -926.01514122 Ry
     Harris-Foulkes estimate   =    -926.01692623 Ry
     estimated scf accuracy    <       0.00972270 Ry

     iteration #  3     ecut=   120.00 Ry     beta= 0.70
     Davidson diagonalization with overlap
     ethr =  2.76E-07,  avg # of iterations =  5.0

     total cpu time spent up to now is      284.9 secs

     total energy              =    -926.01582122 Ry
     Harris-Foulkes estimate   =    -926.01584705 Ry
     estimated scf accuracy    <       0.00020702 Ry

     iteration #  4     ecut=   120.00 Ry     beta= 0.70
     Davidson diagonalization with overlap
     ethr =  1.85E-07,  avg # of iterations =  1.0

     total cpu time spent up to now is      286.4 secs

     total energy              =    -926.01580395 Ry
     Harris-Foulkes estimate   =    -926.01582441 Ry
     estimated scf accuracy    <       0.00015026 Ry

     iteration #  5     ecut=   120.00 Ry     beta= 0.70
     Davidson diagonalization with overlap
     ethr =  1.34E-07,  avg # of iterations =  2.0

     total cpu time spent up to now is      288.0 secs

     total energy              =    -926.01580795 Ry
     Harris-Foulkes estimate   =    -926.01580882 Ry
     estimated scf accuracy    <       0.00007074 Ry

     iteration #  6     ecut=   120.00 Ry     beta= 0.70
     Davidson diagonalization with overlap
     ethr =  6.32E-08,  avg # of iterations =  1.8

     total cpu time spent up to now is      289.5 secs

     total energy              =    -926.01581046 Ry
     Harris-Foulkes estimate   =    -926.01581028 Ry
     estimated scf accuracy    <       0.00006000 Ry

     iteration #  7     ecut=   120.00 Ry     beta= 0.70
     Davidson diagonalization with overlap
     ethr =  5.36E-08,  avg # of iterations =  1.0

     total cpu time spent up to now is      291.0 secs

     total energy              =    -926.01580953 Ry
     Harris-Foulkes estimate   =    -926.01581142 Ry
     estimated scf accuracy    <       0.00005111 Ry

     iteration #  8     ecut=   120.00 Ry     beta= 0.70
     Davidson diagonalization with overlap
     ethr =  4.56E-08,  avg # of iterations =  1.0

     total cpu time spent up to now is      292.4 secs

     total energy              =    -926.01580853 Ry
     Harris-Foulkes estimate   =    -926.01581058 Ry
     estimated scf accuracy    <       0.00003970 Ry

     iteration #  9     ecut=   120.00 Ry     beta= 0.70
     Davidson diagonalization with overlap
     ethr =  3.54E-08,  avg # of iterations =  3.2

     total cpu time spent up to now is      294.1 secs

     total energy              =    -926.01580949 Ry
     Harris-Foulkes estimate   =    -926.01581138 Ry
     estimated scf accuracy    <       0.00002157 Ry

     iteration # 10     ecut=   120.00 Ry     beta= 0.70
     Davidson diagonalization with overlap
     ethr =  1.93E-08,  avg # of iterations =  4.5

     total cpu time spent up to now is      296.2 secs

[...]

     Self-consistent Calculation

     iteration #  1     ecut=   120.00 Ry     beta= 0.70
     Davidson diagonalization with overlap
     ethr =  1.00E-06,  avg # of iterations =  7.8

     total cpu time spent up to now is      432.2 secs

     total energy              =    -920.75970710 Ry
     Harris-Foulkes estimate   =    -927.70454863 Ry
     estimated scf accuracy    <       8.69163541 Ry

     iteration #  2     ecut=   120.00 Ry     beta= 0.70
     Davidson diagonalization with overlap
     ethr =  7.76E-03,  avg # of iterations =  6.2

     total cpu time spent up to now is      436.0 secs

     total energy              =    -911.04754525 Ry
     Harris-Foulkes estimate   =    -945.14892499 Ry
     estimated scf accuracy    <     152.76329719 Ry

     iteration #  3     ecut=   120.00 Ry     beta= 0.70
     Davidson diagonalization with overlap
     ethr =  7.76E-03,  avg # of iterations =  5.5

     total cpu time spent up to now is      439.4 secs

     total energy              =    -925.70747328 Ry
     Harris-Foulkes estimate   =    -926.65576522 Ry
     estimated scf accuracy    <       3.02801729 Ry

     iteration #  4     ecut=   120.00 Ry     beta= 0.70
     Davidson diagonalization with overlap
     ethr =  2.70E-03,  avg # of iterations =  4.0

     total cpu time spent up to now is      441.5 secs

     total energy              =    -925.95555005 Ry
     Harris-Foulkes estimate   =    -926.10656830 Ry
     estimated scf accuracy    <       0.91279370 Ry

     iteration #  5     ecut=   120.00 Ry     beta= 0.70
     Davidson diagonalization with overlap
     ethr =  8.15E-04,  avg # of iterations =  3.8

     total cpu time spent up to now is      443.2 secs

     total energy              =    -925.87356475 Ry
     Harris-Foulkes estimate   =    -926.01932532 Ry
     estimated scf accuracy    <       0.49370043 Ry

     iteration #  6     ecut=   120.00 Ry     beta= 0.70
     Davidson diagonalization with overlap
     ethr =  4.41E-04,  avg # of iterations =  4.0

     total cpu time spent up to now is      445.8 secs

     total energy              =    -926.02393742 Ry
     Harris-Foulkes estimate   =    -926.04810200 Ry
     estimated scf accuracy    <       0.26500885 Ry

     iteration #  7     ecut=   120.00 Ry     beta= 0.70
     Davidson diagonalization with overlap
     ethr =  2.37E-04,  avg # of iterations =  1.0

     total cpu time spent up to now is      447.2 secs

     total energy              =    -925.98588762 Ry
     Harris-Foulkes estimate   =    -926.02658810 Ry
     estimated scf accuracy    <       0.20103644 Ry

     iteration #  8     ecut=   120.00 Ry     beta= 0.70
     Davidson diagonalization with overlap
     ethr =  1.79E-04,  avg # of iterations =  3.5

     total cpu time spent up to now is      449.2 secs

     total energy              =    -926.01132242 Ry
     Harris-Foulkes estimate   =    -926.01348360 Ry
     estimated scf accuracy    <       0.00803655 Ry

     iteration #  9     ecut=   120.00 Ry     beta= 0.70
     Davidson diagonalization with overlap
     ethr =  7.18E-06,  avg # of iterations =  5.5

     total cpu time spent up to now is      452.0 secs

     total energy              =    -926.01621154 Ry
     Harris-Foulkes estimate   =    -926.01715760 Ry
     estimated scf accuracy    <       0.01182916 Ry

     iteration # 10     ecut=   120.00 Ry     beta= 0.70
     Davidson diagonalization with overlap
     ethr =  7.18E-06,  avg # of iterations =  1.0

     total cpu time spent up to now is      453.6 secs

     total energy              =    -926.01413601 Ry
     Harris-Foulkes estimate   =    -926.01630872 Ry
     estimated scf accuracy    <       0.00901219 Ry

     iteration # 11     ecut=   120.00 Ry     beta= 0.70
     Davidson diagonalization with overlap
     ethr =  7.18E-06,  avg # of iterations =  4.0

     total cpu time spent up to now is      456.0 secs

     total energy              =    -926.01561394 Ry
     Harris-Foulkes estimate   =    -926.01596732 Ry
     estimated scf accuracy    <       0.00133826 Ry

     iteration # 12     ecut=   120.00 Ry     beta= 0.70
     Davidson diagonalization with overlap
     ethr =  1.19E-06,  avg # of iterations =  4.0

     total cpu time spent up to now is      457.9 secs

     total energy              =    -926.01573418 Ry
     Harris-Foulkes estimate   =    -926.01576862 Ry
     estimated scf accuracy    <       0.00011011 Ry

     iteration # 13     ecut=   120.00 Ry     beta= 0.70
     Davidson diagonalization with overlap
     ethr =  9.83E-08,  avg # of iterations =  5.0

     total cpu time spent up to now is      461.1 secs

     total energy              =    -926.01581312 Ry
     Harris-Foulkes estimate   =    -926.01586287 Ry
     estimated scf accuracy    <       0.00031246 Ry

     iteration # 14     ecut=   120.00 Ry     beta= 0.70
     Davidson diagonalization with overlap
     ethr =  9.83E-08,  avg # of iterations =  3.0

     total cpu time spent up to now is      462.8 secs

     total energy              =    -926.01580177 Ry
     Harris-Foulkes estimate   =    -926.01582201 Ry
     estimated scf accuracy    <       0.00010223 Ry

     iteration # 15     ecut=   120.00 Ry     beta= 0.70
     Davidson diagonalization with overlap
     ethr =  9.13E-08,  avg # of iterations =  4.0

     total cpu time spent up to now is      464.9 secs

     total energy              =    -926.01581940 Ry
     Harris-Foulkes estimate   =    -926.01581949 Ry
     estimated scf accuracy    <       0.00000025 Ry

     iteration # 16     ecut=   120.00 Ry     beta= 0.70
     Davidson diagonalization with overlap
     ethr =  2.27E-10,  avg # of iterations =  6.8

     total cpu time spent up to now is      468.8 secs

     total energy              =    -926.01582169 Ry
     Harris-Foulkes estimate   =    -926.01582249 Ry
     estimated scf accuracy    <       0.00000672 Ry

     iteration # 17     ecut=   120.00 Ry     beta= 0.70
     Davidson diagonalization with overlap
     ethr =  2.27E-10,  avg # of iterations =  5.0

     total cpu time spent up to now is      471.3 secs

     total energy              =    -926.01582147 Ry
     Harris-Foulkes estimate   =    -926.01582187 Ry
     estimated scf accuracy    <       0.00000164 Ry

     iteration # 18     ecut=   120.00 Ry     beta= 0.70
     Davidson diagonalization with overlap
     ethr =  2.27E-10,  avg # of iterations =  4.5

     total cpu time spent up to now is      472.9 secs

     total energy              =    -926.01582168 Ry
     Harris-Foulkes estimate   =    -926.01582169 Ry
     estimated scf accuracy    <       0.00000004 Ry

     iteration # 19     ecut=   120.00 Ry     beta= 0.70
     Davidson diagonalization with overlap
     ethr =  3.90E-11,  avg # of iterations =  1.0

     total cpu time spent up to now is      473.6 secs

     total energy              =    -926.01582168 Ry
     Harris-Foulkes estimate   =    -926.01582168 Ry
     estimated scf accuracy    <       0.00000003 Ry

     iteration # 20     ecut=   120.00 Ry     beta= 0.70
     Davidson diagonalization with overlap
     ethr =  2.87E-11,  avg # of iterations =  3.5

     total cpu time spent up to now is      474.7 secs

     total energy              =    -926.01582168 Ry
     Harris-Foulkes estimate   =    -926.01582168 Ry
     estimated scf accuracy    <          2.4E-09 Ry

     iteration # 21     ecut=   120.00 Ry     beta= 0.70
     Davidson diagonalization with overlap
     ethr =  2.15E-12,  avg # of iterations =  5.0

     total cpu time spent up to now is      476.1 secs

     total energy              =    -926.01582168 Ry
     Harris-Foulkes estimate   =    -926.01582168 Ry
     estimated scf accuracy    <          3.0E-09 Ry

     iteration # 22     ecut=   120.00 Ry     beta= 0.70
     Davidson diagonalization with overlap
     ethr =  2.15E-12,  avg # of iterations =  1.0

     total cpu time spent up to now is      476.8 secs

     total energy              =    -926.01582168 Ry
     Harris-Foulkes estimate   =    -926.01582168 Ry
     estimated scf accuracy    <          2.0E-09 Ry

     iteration # 23     ecut=   120.00 Ry     beta= 0.70
     Davidson diagonalization with overlap
     ethr =  1.79E-12,  avg # of iterations =  4.0

     total cpu time spent up to now is      478.1 secs

     total energy              =    -926.01582168 Ry
     Harris-Foulkes estimate   =    -926.01582168 Ry
     estimated scf accuracy    <          1.0E-09 Ry

     iteration # 24     ecut=   120.00 Ry     beta= 0.70
     Davidson diagonalization with overlap
     ethr =  9.04E-13,  avg # of iterations =  1.0

     total cpu time spent up to now is      478.8 secs

     total energy              =    -926.01582168 Ry
     Harris-Foulkes estimate   =    -926.01582168 Ry
     estimated scf accuracy    <          7.1E-10 Ry

     iteration # 25     ecut=   120.00 Ry     beta= 0.70
     Davidson diagonalization with overlap
     ethr =  6.30E-13,  avg # of iterations =  1.0

     total cpu time spent up to now is      479.5 secs

     total energy              =    -926.01582168 Ry
     Harris-Foulkes estimate   =    -926.01582168 Ry
     estimated scf accuracy    <          5.5E-10 Ry

     iteration # 26     ecut=   120.00 Ry     beta= 0.70
     Davidson diagonalization with overlap
     ethr =  4.91E-13,  avg # of iterations =  1.0

     total cpu time spent up to now is      480.2 secs

     total energy              =    -926.01582168 Ry
     Harris-Foulkes estimate   =    -926.01582168 Ry
     estimated scf accuracy    <          4.0E-10 Ry

     iteration # 27     ecut=   120.00 Ry     beta= 0.70
     Davidson diagonalization with overlap
     ethr =  3.57E-13,  avg # of iterations =  3.8

     total cpu time spent up to now is      481.2 secs

     total energy              =    -926.01582168 Ry
     Harris-Foulkes estimate   =    -926.01582168 Ry
     estimated scf accuracy    <          6.2E-12 Ry

     iteration # 28     ecut=   120.00 Ry     beta= 0.70
     Davidson diagonalization with overlap
     ethr =  1.00E-13,  avg # of iterations =  4.5

     total cpu time spent up to now is      482.2 secs

     total energy              =    -926.01582168 Ry
     Harris-Foulkes estimate   =    -926.01582168 Ry
     estimated scf accuracy    <          3.5E-11 Ry

     iteration # 29     ecut=   120.00 Ry     beta= 0.70
     Davidson diagonalization with overlap
     ethr =  1.00E-13,  avg # of iterations =  1.0

     total cpu time spent up to now is      482.9 secs

     total energy              =    -926.01582168 Ry
     Harris-Foulkes estimate   =    -926.01582168 Ry
     estimated scf accuracy    <          1.8E-11 Ry

     iteration # 30     ecut=   120.00 Ry     beta= 0.70
     Davidson diagonalization with overlap
     ethr =  1.00E-13,  avg # of iterations =  1.0

     total cpu time spent up to now is      483.6 secs

     total energy              =    -926.01582168 Ry
     Harris-Foulkes estimate   =    -926.01582168 Ry
     estimated scf accuracy    <          3.5E-11 Ry

     iteration # 31     ecut=   120.00 Ry     beta= 0.70
     Davidson diagonalization with overlap
     ethr =  1.00E-13,  avg # of iterations =  1.0

     total cpu time spent up to now is      484.4 secs

     total energy              =    -926.01582168 Ry
     Harris-Foulkes estimate   =    -926.01582168 Ry
     estimated scf accuracy    <          2.8E-11 Ry

     iteration # 32     ecut=   120.00 Ry     beta= 0.70
     Davidson diagonalization with overlap
     ethr =  1.00E-13,  avg # of iterations =  1.0

     total cpu time spent up to now is      485.1 secs

     total energy              =    -926.01582168 Ry
     Harris-Foulkes estimate   =    -926.01582168 Ry
     estimated scf accuracy    <          1.8E-11 Ry

     iteration # 33     ecut=   120.00 Ry     beta= 0.70
     Davidson diagonalization with overlap
     ethr =  1.00E-13,  avg # of iterations =  1.0

     total cpu time spent up to now is      485.8 secs

     total energy              =    -926.01582168 Ry
     Harris-Foulkes estimate   =    -926.01582168 Ry
     estimated scf accuracy    <          1.7E-11 Ry

     iteration # 34     ecut=   120.00 Ry     beta= 0.70
     Davidson diagonalization with overlap
     ethr =  1.00E-13,  avg # of iterations =  1.0

     total cpu time spent up to now is      486.5 secs

     total energy              =    -926.01582168 Ry
     Harris-Foulkes estimate   =    -926.01582168 Ry
     estimated scf accuracy    <          1.2E-11 Ry

     iteration # 35     ecut=   120.00 Ry     beta= 0.70
     Davidson diagonalization with overlap
     ethr =  1.00E-13,  avg # of iterations =  1.0

     total cpu time spent up to now is      487.2 secs

     total energy              =    -926.01582168 Ry
     Harris-Foulkes estimate   =    -926.01582168 Ry
     estimated scf accuracy    <          1.0E-11 Ry

     iteration # 36     ecut=   120.00 Ry     beta= 0.70
     Davidson diagonalization with overlap
     ethr =  1.00E-13,  avg # of iterations =  1.0

     total cpu time spent up to now is      488.0 secs

     End of self-consistent calculation

          k = 0.0000 0.0000 0.0000 ( 29409 PWs)   bands (ev):

   -61.0554 -61.0537 -61.0465 -61.0447 -35.0310 -35.0288 -35.0216 -35.0170
   -34.9492 -34.9024 -34.8846 -34.8544 -34.8522 -34.8397 -34.8256 -34.8235
   -14.2588 -14.1454 -13.2766 -13.1298 -13.0625 -13.0598 -12.7107 -12.7049
   -12.5753 -12.5697  -1.1132  -1.1025  -1.0330  -0.9243  -0.8287  -0.4244
     0.2283   0.3178   0.4990   0.5839   0.7189   0.7612   0.8670   0.9137
     0.9771   1.0015   1.2717   1.3081   1.4058   1.4589   1.5657   1.5785
     1.7793   2.0089   2.1417   2.1697   2.2882   2.4669   2.4685   2.5556

          k = 0.0000 0.2544 0.0000 ( 29359 PWs)   bands (ev):

   -61.0554 -61.0536 -61.0465 -61.0447 -35.0317 -35.0294 -35.0230 -35.0185
   -34.9490 -34.9022 -34.8846 -34.8543 -34.8522 -34.8397 -34.8256 -34.8235
   -14.2124 -14.1069 -13.2335 -13.1127 -13.0614 -13.0449 -12.7262 -12.7017
   -12.5791 -12.5501  -1.1418  -1.1307  -1.0566  -0.9557  -0.9296  -0.5776
    -0.4435  -0.2065  -0.1659  -0.0328   0.4132   0.5410   0.5974   0.9574
     1.0636   1.2738   1.4274   1.4450   1.5826   1.6519   1.7779   1.8705
     2.1343   2.1421   2.1515   2.3235   2.3746   2.5664   2.6403   2.7210

          k = 0.3332 0.0000 0.0000 ( 29428 PWs)   bands (ev):

   -61.0518 -61.0500 -61.0473 -61.0456 -35.0256 -35.0235 -35.0199 -35.0165
   -34.9458 -34.9227 -34.9094 -34.9010 -34.8641 -34.8580 -34.8452 -34.8377
   -13.7351 -13.6076 -13.1879 -13.0266 -13.0225 -13.0181 -12.6536 -12.6534
   -12.6178 -12.5938  -1.5744  -1.5034  -0.8324  -0.7713  -0.7382  -0.3618
    -0.2678   0.0882   0.1067   0.3899   0.4023   0.4494   0.7714   0.8883
     0.9338   0.9645   0.9811   1.0665   1.2213   1.2378   1.4230   1.4603
     1.5192   1.9095   2.2053   2.2752   2.3998   2.5534   2.7420   2.7631

          k = 0.3332 0.2544 0.0000 ( 29394 PWs)   bands (ev):

   -61.0518 -61.0500 -61.0473 -61.0456 -35.0264 -35.0243 -35.0212 -35.0177
   -34.9456 -34.9226 -34.9092 -34.9009 -34.8640 -34.8580 -34.8452 -34.8377
   -13.6945 -13.5788 -13.1569 -13.0247 -13.0142 -13.0052 -12.6630 -12.6436
   -12.5894 -12.5671  -1.5728  -1.5007  -0.8688  -0.8256  -0.8077  -0.4637
    -0.4142  -0.2981  -0.1979  -0.0315   0.0358   0.1801   0.5262   0.5719
     0.6349   0.7169   0.8047   0.9008   0.9754   1.4201   1.6550   1.8238
     2.0401   2.1108   2.4207   2.6435   2.6510   2.7867   2.8706   2.8895

     highest occupied level (ev):     2.8895

!    total energy              =    -926.01582168 Ry
     Harris-Foulkes estimate   =    -926.01582168 Ry
     estimated scf accuracy    <          2.1E-13 Ry

     The total energy is the sum of the following terms:

     one-electron contribution =    -628.60891235 Ry
     hartree contribution      =     350.97019573 Ry
     xc contribution           =    -178.12708344 Ry
     ewald contribution        =    -470.25002163 Ry

     convergence has been achieved in  36 iterations

     Forces acting on atoms (cartesian axes, Ry/au):

     atom    1 type  1   force =     0.00000000   -0.00036990    0.00011538
     atom    2 type  1   force =     0.00000000    0.00036990   -0.00011538
     atom    3 type  1   force =     0.00000000    0.00036990    0.00011538
     atom    4 type  1   force =    -0.00000000   -0.00036990   -0.00011538
     atom    5 type  2   force =     0.00000000   -0.00001327   -0.00004465
     atom    6 type  2   force =     0.00000000    0.00001327    0.00004465
     atom    7 type  2   force =     0.00000000    0.00001327   -0.00004465
     atom    8 type  2   force =     0.00000000   -0.00001327    0.00004465
     atom    9 type  2   force =     0.00000000    0.00094712    0.00004857
     atom   10 type  2   force =    -0.00000000   -0.00094712   -0.00004857
     atom   11 type  2   force =    -0.00000000   -0.00094712    0.00004857
     atom   12 type  2   force =    -0.00000000   -0.00006715    0.00000000
     atom   13 type  2   force =     0.00000000    0.00006715   -0.00000000
     atom   14 type  2   force =     0.00000000    0.00094712   -0.00004857

     Total force =     0.002053     Total SCF correction =     0.000001


     Computing stress (Cartesian axis) and pressure

          total   stress  (Ry/bohr**3)                   (kbar)     P=   -0.21
  -0.00000324   0.00000000   0.00000000         -0.48      0.00      0.00
   0.00000000   0.00000007   0.00000000          0.00      0.01      0.00
   0.00000000   0.00000000  -0.00000115          0.00      0.00     -0.17


     Writing output data file v2o5.save/

     init_run     :      3.27s CPU      3.32s WALL (       2 calls)
     electrons    :    448.84s CPU    454.39s WALL (       7 calls)
     update_pot   :      6.79s CPU      6.85s WALL (       5 calls)
     forces       :      9.12s CPU      9.22s WALL (       7 calls)
     stress       :     14.98s CPU     15.09s WALL (       7 calls)

     Called by init_run:
     wfcinit      :      1.50s CPU      1.50s WALL (       2 calls)
     potinit      :      0.67s CPU      0.70s WALL (       2 calls)
     hinit0       :      0.97s CPU      0.98s WALL (       2 calls)

     Called by electrons:
     c_bands      :    406.50s CPU    409.76s WALL (     232 calls)
     sum_band     :     17.65s CPU     17.95s WALL (     232 calls)
     v_of_rho     :     23.68s CPU     25.49s WALL (     237 calls)
     mix_rho      :      1.52s CPU      1.59s WALL (     232 calls)

     Called by c_bands:
     init_us_2    :      5.28s CPU      5.38s WALL (    1920 calls)
     cegterg      :    392.94s CPU    395.96s WALL (     928 calls)

     Called by sum_band:

     Called by *egterg:
     h_psi        :    244.22s CPU    245.96s WALL (    3760 calls)
     g_psi        :      0.63s CPU      0.63s WALL (    2824 calls)
     cdiaghg      :     33.49s CPU     34.29s WALL (    3724 calls)

     Called by h_psi:
     h_psi:pot    :    243.21s CPU    244.94s WALL (    3760 calls)
     h_psi:calbec :     97.44s CPU     98.15s WALL (    3760 calls)
     vloc_psi     :     69.57s CPU     70.41s WALL (    3760 calls)
     add_vuspsi   :     76.16s CPU     76.35s WALL (    3760 calls)

     General routines
     calbec       :    102.39s CPU    103.16s WALL (    3900 calls)
     fft          :     13.29s CPU     14.91s WALL (   15403 calls)
     ffts         :      0.20s CPU      0.22s WALL (     232 calls)
     fftw         :     74.01s CPU     74.91s WALL (  325838 calls)

     Parallel routines
     fft_scatt_xy :      7.24s CPU      7.37s WALL (  341473 calls)
     fft_scatt_yz :     51.84s CPU     53.70s WALL (  341473 calls)

     PWSCF        :   8m 3.60s CPU   8m 9.74s WALL


   This run was terminated on:  23:33: 2  18May2024            

=------------------------------------------------------------------------------=
   JOB DONE.
=------------------------------------------------------------------------------=
