
     Program PWSCF v.6.4.1 starts on  9Oct2024 at  0: 9: 4 

     This program is part of the open-source Quantum ESPRESSO suite
     for quantum simulation of materials; please cite
         "P. Giannozzi et al., J. Phys.:Condens. Matter 21 395502 (2009);
         "P. Giannozzi et al., J. Phys.:Condens. Matter 29 465901 (2017);
          URL http://www.quantum-espresso.org", 
     in publications or presentations arising from this work. More details at
     http://www.quantum-espresso.org/quote

     Parallel version (MPI), running on    32 processors

     MPI processes distributed on     1 nodes
     R & G space division:  proc/nbgrp/npool/nimage =      32
     Reading input from C91.scf.in
Warning: card &IONS ignored
Warning: card     ION_DYNAMICS = "BFGS" ignored
Warning: card     BFGS_NDIM = 2 ignored
Warning: card / ignored

     Current dimensions of program PWSCF are:
     Max number of different atomic species (ntypx) = 10
     Max number of k-points (npk) =  40000
     Max angular momentum in pseudopotentials (lmaxx) =  3

     IMPORTANT: XC functional enforced from input :
     Exchange-correlation      = VDW-DF ( 1  4  4  0 1 0)
     Any further DFT definition will be discarded
     Please, verify this is what you really want

               file C.pbesol-n-kjpaw_psl.1.0.0.UPF: wavefunction(s)  2S 2P renormalized

     Subspace diagonalization in iterative solution of the eigenvalue problem:
     one sub-group per band group will be used
     ELPA distributed-memory algorithm (size of sub-group:  4*  4 procs)


     Parallelization info
     --------------------
     sticks:   dense  smooth     PW     G-vecs:    dense   smooth      PW
     Min         426     170     47               119505    30230    4446
     Max         427     171     48               119514    30241    4456
     Sum       13635    5445   1525              3824339   967507  142413



     bravais-lattice index     =            0
     lattice parameter (alat)  =      30.2219  a.u.
     unit-cell volume          =   28307.6739 (a.u.)^3
     number of atoms/cell      =           91
     number of atomic types    =            1
     number of electrons       =       364.00
     number of Kohn-Sham states=          218
     kinetic-energy cutoff     =      40.0000  Ry
     charge density cutoff     =     400.0000  Ry
     convergence threshold     =      1.0E-06
     mixing beta               =       0.4000
     number of iterations used =            8  local-TF  mixing
     Exchange-correlation      = VDW-DF ( 1  4  4  0 1 0)

     celldm(1)=  30.221920  celldm(2)=   0.000000  celldm(3)=   0.000000
     celldm(4)=   0.000000  celldm(5)=   0.000000  celldm(6)=   0.000000

     crystal axes: (cart. coord. in units of alat)
               a(1) = (   1.000000   0.000000   0.000000 )  
               a(2) = (  -0.522247   0.468590   0.000000 )  
               a(3) = (   0.000000   0.000000   2.188492 )  

     reciprocal axes: (cart. coord. in units 2 pi/alat)
               b(1) = (  1.000000  1.114507 -0.000000 )  
               b(2) = (  0.000000  2.134061  0.000000 )  
               b(3) = (  0.000000 -0.000000  0.456936 )  


     PseudoPot. # 1 for C  read from file:
     /home/mpicuntureo/pseudos/C.pbesol-n-kjpaw_psl.1.0.0.UPF
     MD5 check sum: f9b2fe17d1f478429498b05d17159f9e
     Pseudo is Projector augmented-wave + core cor, Zval =  4.0
     Generated using "atomic" code by A. Dal Corso v.6.3
     Shape of augmentation charge: PSQ
     Using radial grid of 1073 points,  4 beta functions with: 
                l(1) =   0
                l(2) =   0
                l(3) =   1
                l(4) =   1
     Q(r) pseudized with 0 coefficients 


     vdW kernel table read from file vdW_kernel_table
     MD5 check sum: 8c4337f4b28e1601c069d7ef7b6561bc

     atomic species   valence    mass     pseudopotential
        C              4.00    12.01100     C ( 1.00)

     No symmetry found



   Cartesian axes

     site n.     atom                  positions (alat units)
         1           C   tau(   1) = (  -0.1096893   0.3935529   0.2307925  )
         2           C   tau(   2) = (   0.1656604   0.0230343   0.2110757  )
         3           C   tau(   3) = (   0.0757452   0.1473618   0.2172544  )
         4           C   tau(   4) = (   0.0133109   0.0054426   0.2121520  )
         5           C   tau(   5) = (  -0.0069635   0.2728480   0.2293000  )
         6           C   tau(   6) = (  -0.0761954   0.1293031   0.2217475  )
         7           C   tau(   7) = (   0.3383238   0.4545373   0.2218686  )
         8           C   tau(   8) = (  -0.1656198   0.2518871   0.2290574  )
         9           C   tau(   9) = (   0.7718088   0.1107346   0.2334167  )
        10           C   tau(  10) = (   0.1891959   0.4384083   0.2489198  )
        11           C   tau(  11) = (  -0.2624115   0.3721372   0.2207127  )
        12           C   tau(  12) = (   0.6789598   0.2319396   0.2290125  )
        13           C   tau(  13) = (   0.6189033   0.0917011   0.2422226  )
        14           C   tau(  14) = (   0.0391906   0.4179825   0.2514541  )
        15           C   tau(  15) = (   0.5831191   0.3514477   0.2138735  )
        16           C   tau(  16) = (   0.5247834   0.2113095   0.2227713  )
        17           C   tau(  17) = (   0.4670561   0.0698129   0.2306606  )
        18           C   tau(  18) = (   0.4279725   0.3319604   0.2134380  )
        19           C   tau(  19) = (   0.3717143   0.1904622   0.2144702  )
        20           C   tau(  20) = (   0.3167887   0.0464875   0.2177422  )
        21           C   tau(  21) = (   0.2691203   0.3108914   0.2207790  )
        22           C   tau(  22) = (   0.2206114   0.1674018   0.2148118  )
        23           C   tau(  23) = (  -0.2743383   0.4593403   0.2153000  )
        24           C   tau(  24) = (   0.1545621   0.1093457   0.2129240  )
        25           C   tau(  25) = (  -0.4276968   0.4388290   0.2102044  )
        26           C   tau(  26) = (   0.0776674   0.2358256   0.2228132  )
        27           C   tau(  27) = (   0.0040933   0.0940879   0.2165719  )
        28           C   tau(  28) = (   0.4195633   0.4203484   0.2141261  )
        29           C   tau(  29) = (  -0.0818857   0.2180981   0.2267835  )
        30           C   tau(  30) = (   0.8521947   0.0752065   0.2251770  )
        31           C   tau(  31) = (   0.2671828   0.4005561   0.2306818  )
        32           C   tau(  32) = (  -0.1797013   0.3391879   0.2268098  )
        33           C   tau(  33) = (   0.7621223   0.1986708   0.2313893  )
        34           C   tau(  34) = (   0.7009326   0.0584552   0.2430223  )
        35           C   tau(  35) = (  -0.3338174   0.3187774   0.2205265  )
        36           C   tau(  36) = (   0.6074596   0.1788277   0.2318553  )
        37           C   tau(  37) = (   0.5486321   0.0378104   0.2429130  )
        38           C   tau(  38) = (   0.5114292   0.2983386   0.2152572  )
        39           C   tau(  39) = (   0.4545347   0.1573389   0.2215017  )
        40           C   tau(  40) = (   0.3987257   0.0134751   0.2271288  )
        41           C   tau(  41) = (   0.3551383   0.2779555   0.2142436  )
        42           C   tau(  42) = (   0.3035494   0.1349912   0.2144640  )
        43           C   tau(  43) = (   0.1962116   0.2524146   0.2195350  )
        44           C   tau(  44) = (   0.1194678   0.3911547   0.2655485  )
        45           C   tau(  45) = (  -0.0270675   0.3602770   0.2383227  )
        46           C   tau(  46) = (   0.2392793   0.0735151   0.0036225  )
        47           C   tau(  47) = (  -0.0046853   0.1753722   0.0033987  )
        48           C   tau(  48) = (  -0.0974521   0.2976166   0.0050610  )
        49           C   tau(  49) = (  -0.1558987   0.1549970   0.0044484  )
        50           C   tau(  50) = (  -0.1902157   0.4198619   0.0052081  )
        51           C   tau(  51) = (  -0.2486605   0.2772454   0.0054535  )
        52           C   tau(  52) = (   0.6928925   0.1346327   0.0053067  )
        53           C   tau(  53) = (  -0.3414218   0.3994928   0.0043428  )
        54           C   tau(  54) = (   0.6001313   0.2568742   0.0050199  )
        55           C   tau(  55) = (   0.5416822   0.1142608   0.0053905  )
        56           C   tau(  56) = (   0.0880737   0.0531410   0.0029181  )
        57           C   tau(  57) = (   0.5073788   0.3791151   0.0033519  )
        58           C   tau(  58) = (   0.4489277   0.2364951   0.0040049  )
        59           C   tau(  59) = (   0.3904760   0.0938923   0.0046640  )
        60           C   tau(  60) = (   0.9368664   0.0327632   0.0029695  )
        61           C   tau(  61) = (   0.3561736   0.3587417   0.0028596  )
        62           C   tau(  62) = (   0.2977273   0.2161214   0.0030791  )
        63           C   tau(  63) = (   0.7856602   0.0123849   0.0037320  )
        64           C   tau(  64) = (   0.2049692   0.3383661   0.0031253  )
        65           C   tau(  65) = (   0.1465177   0.1957511   0.0028386  )
        66           C   tau(  66) = (   0.1122044   0.4606027   0.0047714  )
        67           C   tau(  67) = (   0.0537541   0.3179868   0.0040646  )
        68           C   tau(  68) = (  -0.0390008   0.4402315   0.0053986  )
        69           C   tau(  69) = (   0.0767125   0.1412918   0.0029025  )
        70           C   tau(  70) = (  -0.0160446   0.2635267   0.0042056  )
        71           C   tau(  71) = (  -0.0744916   0.1209104   0.0035548  )
        72           C   tau(  72) = (  -0.1088163   0.3857677   0.0054510  )
        73           C   tau(  73) = (  -0.1672624   0.2431502   0.0051703  )
        74           C   tau(  74) = (   0.7742987   0.1005341   0.0046076  )
        75           C   tau(  75) = (  -0.2600186   0.3654016   0.0051679  )
        76           C   tau(  76) = (   0.6815276   0.2227829   0.0054823  )
        77           C   tau(  77) = (   0.6230866   0.0801569   0.0053855  )
        78           C   tau(  78) = (   0.1694752   0.0190522   0.0035694  )
        79           C   tau(  79) = (   0.5887732   0.3450252   0.0042687  )
        80           C   tau(  80) = (   0.5303207   0.2024204   0.0049373  )
        81           C   tau(  81) = (  -0.5039731   0.4672744   0.0029347  )
        82           C   tau(  82) = (   0.4375794   0.3246495   0.0032919  )
        83           C   tau(  83) = (   0.3791238   0.1820402   0.0038870  )
        84           C   tau(  84) = (   0.3448174   0.4468978   0.0030656  )
        85           C   tau(  85) = (   0.2863724   0.3042763   0.0028493  )
        86           C   tau(  86) = (   0.2279286   0.1616659   0.0030407  )
        87           C   tau(  87) = (   0.1936091   0.4265169   0.0038764  )
        88           C   tau(  88) = (   0.1351635   0.2838973   0.0032325  )
        89           C   tau(  89) = (   0.0423951   0.4061403   0.0048951  )
        90           C   tau(  90) = (   0.4718806   0.0598007   0.0053706  )
        91           C   tau(  91) = (   0.3206685   0.0394311   0.0045875  )

     number of k points=     4  gaussian smearing, width (Ry)=  0.1000
                       cart. coord. in units 2pi/alat
        k(    1) = (   0.0000000   0.0000000   0.0000000), wk =   0.5000000
        k(    2) = (   0.0000000  -1.0670305   0.0000000), wk =   0.5000000
        k(    3) = (  -0.5000000  -0.5572533   0.0000000), wk =   0.5000000
        k(    4) = (  -0.5000000  -1.6242837   0.0000000), wk =   0.5000000

     Dense  grid:  3824339 G-vectors     FFT dimensions: ( 200, 135, 432)

     Smooth grid:   967507 G-vectors     FFT dimensions: ( 125,  90, 270)

     Estimated max dynamical RAM per process >     426.36 MB

     Estimated total dynamical RAM >      13.32 GB

     Check: negative core charge=   -0.000002

     Initial potential from superposition of free atoms

     starting charge  363.99621, renormalised to  364.00000

     negative rho (up, down):  4.571E-03 0.000E+00


     %%%%%%%%%%%%%%%%%%%%%%%%%%%%%%%%%%%%%%%%%%%%%%%%%%%%%%%%%%%%%%%%%%%%%%%%
     %                                                                      %
     % You are using vdW-DF, which was implemented by the Thonhauser group. %
     % Please cite the following two papers that made this development      %
     % possible and the two reviews that describe the various versions:     %
     %                                                                      %
     %   T. Thonhauser et al., PRL 115, 136402 (2015).                      %
     %   T. Thonhauser et al., PRB 76, 125112 (2007).                       %
     %   K. Berland et al., Rep. Prog. Phys. 78, 066501 (2015).             %
     %   D.C. Langreth et al., J. Phys.: Condens. Matter 21, 084203 (2009). %
     %                                                                      %
     %                                                                      %
     % If you are calculating the stress with vdW-DF, please also cite:     %
     %                                                                      %
     %   R. Sabatini et al., J. Phys.: Condens. Matter 24, 424209 (2012).   %
     %                                                                      %
     %%%%%%%%%%%%%%%%%%%%%%%%%%%%%%%%%%%%%%%%%%%%%%%%%%%%%%%%%%%%%%%%%%%%%%%%


     Starting wfcs are  364 randomized atomic wfcs
     Checking if some PAW data can be deallocated... 

     total cpu time spent up to now is      143.6 secs

     Self-consistent Calculation

     iteration #  1     ecut=    40.00 Ry     beta= 0.40
     Davidson diagonalization with overlap
     ethr =  1.00E-02,  avg # of iterations =  2.0

     negative rho (up, down):  1.088E-03 0.000E+00

     total cpu time spent up to now is      468.4 secs

     total energy              =   -1714.10628586 Ry
     Harris-Foulkes estimate   =   -1716.22574759 Ry
     estimated scf accuracy    <      10.27164773 Ry

     iteration #  2     ecut=    40.00 Ry     beta= 0.40
     Davidson diagonalization with overlap
     ethr =  2.82E-03,  avg # of iterations =  1.0

     negative rho (up, down):  5.173E-03 0.000E+00

     total cpu time spent up to now is      664.5 secs

     total energy              =   -1711.23543210 Ry
     Harris-Foulkes estimate   =   -1714.27017084 Ry
     estimated scf accuracy    <       5.54878695 Ry

     iteration #  3     ecut=    40.00 Ry     beta= 0.40
     Davidson diagonalization with overlap
     ethr =  1.52E-03,  avg # of iterations =  2.0

     negative rho (up, down):  8.962E-04 0.000E+00

     total cpu time spent up to now is      987.4 secs

     total energy              =   -1712.04901287 Ry
     Harris-Foulkes estimate   =   -1712.08805399 Ry
     estimated scf accuracy    <       0.32021785 Ry

     iteration #  4     ecut=    40.00 Ry     beta= 0.40
     Davidson diagonalization with overlap
     ethr =  8.80E-05,  avg # of iterations = 17.8

     negative rho (up, down):  1.559E-05 0.000E+00

     total cpu time spent up to now is     1261.1 secs

     total energy              =   -1711.98937035 Ry
     Harris-Foulkes estimate   =   -1712.06684189 Ry
     estimated scf accuracy    <       0.21537590 Ry

     iteration #  5     ecut=    40.00 Ry     beta= 0.40
     Davidson diagonalization with overlap
     ethr =  5.92E-05,  avg # of iterations =  2.0

     negative rho (up, down):  4.513E-06 0.000E+00

     total cpu time spent up to now is     1486.3 secs

     total energy              =   -1711.98874163 Ry
     Harris-Foulkes estimate   =   -1712.00333179 Ry
     estimated scf accuracy    <       0.10302333 Ry

     iteration #  6     ecut=    40.00 Ry     beta= 0.40
     Davidson diagonalization with overlap
     ethr =  2.83E-05,  avg # of iterations =  6.0

     negative rho (up, down):  2.105E-04 0.000E+00

     total cpu time spent up to now is     1693.0 secs

     total energy              =   -1711.96461640 Ry
     Harris-Foulkes estimate   =   -1711.98999942 Ry
     estimated scf accuracy    <       0.07988621 Ry

     iteration #  7     ecut=    40.00 Ry     beta= 0.40
     Davidson diagonalization with overlap
     ethr =  2.19E-05,  avg # of iterations = 14.8

     negative rho (up, down):  3.272E-02 0.000E+00

     total cpu time spent up to now is     1943.3 secs

     total energy              =   -1711.96109781 Ry
     Harris-Foulkes estimate   =   -1711.96768235 Ry
     estimated scf accuracy    <       0.05249596 Ry

     iteration #  8     ecut=    40.00 Ry     beta= 0.40
     Davidson diagonalization with overlap
     ethr =  1.44E-05,  avg # of iterations =  6.5

     negative rho (up, down):  1.350E-01 0.000E+00

     total cpu time spent up to now is     2174.1 secs

     total energy              =   -1711.95957324 Ry
     Harris-Foulkes estimate   =   -1711.96563039 Ry
     estimated scf accuracy    <       0.03926493 Ry

     iteration #  9     ecut=    40.00 Ry     beta= 0.40
     Davidson diagonalization with overlap
     ethr =  1.08E-05,  avg # of iterations = 11.8

     negative rho (up, down):  1.452E-01 0.000E+00

     total cpu time spent up to now is     2397.7 secs

     total energy              =   -1711.95799289 Ry
     Harris-Foulkes estimate   =   -1711.96088673 Ry
     estimated scf accuracy    <       0.02708828 Ry

     iteration # 10     ecut=    40.00 Ry     beta= 0.40
     Davidson diagonalization with overlap
     c_bands:  2 eigenvalues not converged
     ethr =  7.44E-06,  avg # of iterations = 15.2

     negative rho (up, down):  1.734E-01 0.000E+00

     total cpu time spent up to now is     2646.4 secs

     total energy              =   -1711.95729060 Ry
     Harris-Foulkes estimate   =   -1711.95960057 Ry
     estimated scf accuracy    <       0.01822727 Ry

     iteration # 11     ecut=    40.00 Ry     beta= 0.40
     Davidson diagonalization with overlap
     c_bands:  1 eigenvalues not converged
     ethr =  5.01E-06,  avg # of iterations = 12.2

     negative rho (up, down):  2.000E-01 0.000E+00

     total cpu time spent up to now is     2873.6 secs

     total energy              =   -1711.95213783 Ry
     Harris-Foulkes estimate   =   -1711.95758031 Ry
     estimated scf accuracy    <       0.01454095 Ry

     iteration # 12     ecut=    40.00 Ry     beta= 0.40
     Davidson diagonalization with overlap
     ethr =  3.99E-06,  avg # of iterations = 14.0

     negative rho (up, down):  1.705E-01 0.000E+00

     total cpu time spent up to now is     3151.0 secs

     total energy              =   -1711.95113447 Ry
     Harris-Foulkes estimate   =   -1711.95289279 Ry
     estimated scf accuracy    <       0.00861050 Ry

     iteration # 13     ecut=    40.00 Ry     beta= 0.40
     Davidson diagonalization with overlap
     c_bands:  1 eigenvalues not converged
     ethr =  2.37E-06,  avg # of iterations = 14.0

     negative rho (up, down):  1.315E-01 0.000E+00

     total cpu time spent up to now is     3393.3 secs

     total energy              =   -1711.94878376 Ry
     Harris-Foulkes estimate   =   -1711.95169997 Ry
     estimated scf accuracy    <       0.00607276 Ry

     iteration # 14     ecut=    40.00 Ry     beta= 0.40
     Davidson diagonalization with overlap
     c_bands:  2 eigenvalues not converged
     ethr =  1.67E-06,  avg # of iterations = 15.0

     negative rho (up, down):  7.019E-02 0.000E+00

     total cpu time spent up to now is     3683.3 secs

     total energy              =   -1711.94858612 Ry
     Harris-Foulkes estimate   =   -1711.94903807 Ry
     estimated scf accuracy    <       0.00226165 Ry

     iteration # 15     ecut=    40.00 Ry     beta= 0.40
     Davidson diagonalization with overlap
     c_bands:  1 eigenvalues not converged
     ethr =  6.21E-07,  avg # of iterations = 13.5

     negative rho (up, down):  4.082E-02 0.000E+00

     total cpu time spent up to now is     4006.4 secs

     total energy              =   -1711.94857757 Ry
     Harris-Foulkes estimate   =   -1711.94881792 Ry
     estimated scf accuracy    <       0.00078642 Ry

     iteration # 16     ecut=    40.00 Ry     beta= 0.40
     Davidson diagonalization with overlap
     ethr =  2.16E-07,  avg # of iterations =  9.8

     negative rho (up, down):  2.704E-02 0.000E+00

     total cpu time spent up to now is     4262.9 secs

     total energy              =   -1711.94856474 Ry
     Harris-Foulkes estimate   =   -1711.94863296 Ry
     estimated scf accuracy    <       0.00014659 Ry

     iteration # 17     ecut=    40.00 Ry     beta= 0.40
     Davidson diagonalization with overlap
     c_bands:  1 eigenvalues not converged
     ethr =  4.03E-08,  avg # of iterations =  8.8

     negative rho (up, down):  1.194E-02 0.000E+00

     total cpu time spent up to now is     4487.4 secs

     total energy              =   -1711.94862508 Ry
     Harris-Foulkes estimate   =   -1711.94857126 Ry
     estimated scf accuracy    <       0.00006040 Ry

     iteration # 18     ecut=    40.00 Ry     beta= 0.40
     Davidson diagonalization with overlap
     c_bands:  1 eigenvalues not converged
     c_bands:  3 eigenvalues not converged
     ethr =  1.66E-08,  avg # of iterations = 16.0

     negative rho (up, down):  7.356E-03 0.000E+00

     total cpu time spent up to now is     4764.9 secs

     total energy              =   -1711.94864376 Ry
     Harris-Foulkes estimate   =   -1711.94863294 Ry
     estimated scf accuracy    <       0.00001313 Ry

     iteration # 19     ecut=    40.00 Ry     beta= 0.40
     Davidson diagonalization with overlap
     c_bands:  1 eigenvalues not converged
     ethr =  3.61E-09,  avg # of iterations = 13.2

     negative rho (up, down):  5.440E-03 0.000E+00

     total cpu time spent up to now is     5013.9 secs

     total energy              =   -1711.94864615 Ry
     Harris-Foulkes estimate   =   -1711.94864500 Ry
     estimated scf accuracy    <       0.00000629 Ry

     iteration # 20     ecut=    40.00 Ry     beta= 0.40
     Davidson diagonalization with overlap
     c_bands:  1 eigenvalues not converged
     ethr =  1.73E-09,  avg # of iterations =  6.2

     negative rho (up, down):  4.716E-03 0.000E+00

     total cpu time spent up to now is     5220.0 secs

     total energy              =   -1711.94864955 Ry
     Harris-Foulkes estimate   =   -1711.94864641 Ry
     estimated scf accuracy    <       0.00000373 Ry

     iteration # 21     ecut=    40.00 Ry     beta= 0.40
     Davidson diagonalization with overlap
     ethr =  1.02E-09,  avg # of iterations =  2.0

     negative rho (up, down):  4.342E-03 0.000E+00

     total cpu time spent up to now is     5421.5 secs

     total energy              =   -1711.94865406 Ry
     Harris-Foulkes estimate   =   -1711.94864970 Ry
     estimated scf accuracy    <       0.00000216 Ry

     iteration # 22     ecut=    40.00 Ry     beta= 0.40
     Davidson diagonalization with overlap
     ethr =  5.94E-10,  avg # of iterations =  2.0

     negative rho (up, down):  4.293E-03 0.000E+00

     total cpu time spent up to now is     5621.5 secs

     total energy              =   -1711.94865394 Ry
     Harris-Foulkes estimate   =   -1711.94865416 Ry
     estimated scf accuracy    <       0.00000144 Ry

     iteration # 23     ecut=    40.00 Ry     beta= 0.40
     Davidson diagonalization with overlap
     ethr =  3.96E-10,  avg # of iterations =  1.0

     negative rho (up, down):  4.455E-03 0.000E+00

     total cpu time spent up to now is     5820.4 secs

     total energy              =   -1711.94865004 Ry
     Harris-Foulkes estimate   =   -1711.94865397 Ry
     estimated scf accuracy    <       0.00000101 Ry

     iteration # 24     ecut=    40.00 Ry     beta= 0.40
     Davidson diagonalization with overlap
     ethr =  2.78E-10,  avg # of iterations =  2.0

     negative rho (up, down):  4.693E-03 0.000E+00

     total cpu time spent up to now is     6012.6 secs

     End of self-consistent calculation

          k = 0.0000 0.0000 0.0000 (121045 PWs)   bands (ev):

   -21.8903 -21.6655 -21.0468 -21.0363 -20.9676 -20.9547 -20.9133 -20.8358
   -20.6985 -20.5618 -20.2220 -20.2213 -20.0314 -20.0066 -19.9852 -19.9788
   -19.8234 -19.4190 -18.5504 -18.5465 -18.3637 -18.2807 -18.2313 -18.2248
   -18.0418 -17.9716 -17.8800 -17.8721 -17.7677 -17.6717 -17.6438 -17.6249
   -17.4894 -17.4876 -17.4031 -17.3633 -17.2514 -17.2477 -17.2126 -17.1263
   -16.9650 -16.2628 -15.6828 -15.6789 -15.5489 -15.2171 -14.6282 -14.6275
   -14.4365 -14.4319 -14.3863 -14.3385 -14.1643 -14.0094 -13.9111 -13.9103
   -13.8087 -13.8068 -13.7275 -13.6994 -13.5048 -13.4959 -13.4838 -13.4679
   -13.3375 -13.3217 -13.2946 -13.2480 -12.9642 -12.3588 -12.2349 -12.2343
   -12.0962 -12.0926 -12.0535 -11.8630 -11.7255 -11.2150 -11.1638 -11.1620
   -10.9620 -10.8104 -10.6799 -10.6786 -10.3668 -10.2202 -10.1095 -10.1082
   -10.0749  -9.8306  -9.7680  -9.7427  -9.7399  -9.6285  -9.6280  -9.5377
    -9.4644  -9.4134  -9.3704  -9.2844  -9.2039  -9.1816  -9.1005  -9.0969
    -9.0949  -9.0706  -9.0684  -9.0254  -8.9246  -8.8420  -8.8354  -8.8274
    -8.7419  -8.5485  -8.4786  -8.4648  -8.4091  -8.3657  -8.3650  -8.3586
    -8.3309  -8.3053  -8.2597  -8.2590  -8.2196  -8.1775  -8.1511  -8.1014
    -8.0172  -7.9850  -7.9837  -7.9667  -7.9603  -7.8448  -7.7468  -7.7414
    -7.7280  -7.5626  -7.4677  -7.4516  -7.2723  -7.1636  -7.0591  -7.0352
    -7.0345  -6.9684  -6.9679  -6.8498  -6.7915  -6.6294  -6.2881  -6.2379
    -5.9993  -5.9469  -5.6982  -5.6782  -5.6697  -5.6512  -5.5994  -5.5166
    -5.4466  -5.4177  -5.3878  -5.3589  -5.3220  -5.2717  -5.2549  -5.2010
    -5.1318  -4.9632  -4.8557  -4.8484  -4.8117  -4.7536  -4.7071  -4.4536
    -4.2923  -3.8326  -3.2958  -3.2055  -3.0133  -2.7231  -2.1015  -1.3546
    -1.3218  -1.0962  -0.9430  -0.0538  -0.0221   0.0364   0.1026   0.2211
     0.2580   0.3185   0.3528   0.3728   0.4130   0.4603   0.5551   0.5791
     0.6424   0.7206   0.8053   0.8806   0.9082   0.9450   1.0615   1.2160
     1.3391   1.5880   1.6236   1.7229   1.7429   1.7612   1.7834   1.8467
     1.8619   2.0057

          k = 0.0000-1.0670 0.0000 (120926 PWs)   bands (ev):

   -21.4795 -21.4726 -21.4254 -21.4089 -21.3173 -21.2935 -21.2352 -20.9051
   -19.8442 -19.8414 -19.7119 -19.6916 -19.6808 -19.6778 -19.6638 -19.6500
   -19.5354 -19.5205 -19.5076 -19.4764 -19.4408 -19.3926 -19.1980 -18.7620
   -18.2034 -18.2019 -17.9840 -17.9749 -17.7497 -17.7436 -17.4885 -17.2651
   -16.7458 -16.7393 -16.6453 -16.6277 -16.5112 -16.4900 -16.4894 -16.4264
   -16.2166 -16.1248 -16.1189 -16.0810 -15.9237 -15.5516 -15.3994 -15.1983
   -14.9754 -14.9744 -14.8248 -14.7010 -14.6977 -14.6187 -14.5241 -14.2612
   -14.2124 -14.2107 -14.1254 -14.1250 -14.0222 -13.9755 -13.8519 -12.7085
   -12.4078 -12.4065 -12.1653 -11.8888 -11.6772 -11.6760 -11.5631 -11.4773
   -11.4725 -11.4683 -11.2651 -11.1941 -11.1937 -11.1324 -11.0205 -10.9586
   -10.9555 -10.9555 -10.8344 -10.8324 -10.8150 -10.7459 -10.7366 -10.7355
   -10.6581 -10.5059 -10.4892 -10.4797 -10.4656 -10.1259 -10.0783  -9.7809
    -9.7316  -9.6959  -9.6908  -9.6521  -9.5251  -9.4971  -9.3050  -9.3045
    -9.1805  -9.1614  -9.0488  -8.9942  -8.9439  -8.9154  -8.8748  -8.8341
    -8.8291  -8.7739  -8.7439  -8.6758  -8.5002  -8.4868  -8.4828  -8.3921
    -8.0314  -8.0306  -7.9987  -7.9746  -7.9407  -7.9399  -7.8015  -7.7737
    -7.7408  -7.7111  -7.6142  -7.5995  -7.5718  -7.5191  -7.3780  -7.3604
    -7.3063  -7.1970  -7.1800  -7.1778  -7.0809  -7.0396  -6.9390  -6.9172
    -6.8881  -6.8361  -6.7955  -6.7938  -6.7866  -6.6671  -6.5668  -6.4758
    -6.3596  -6.2852  -6.2725  -6.2697  -6.2022  -6.1971  -6.1922  -6.1143
    -5.8779  -5.8434  -5.5076  -5.4705  -5.2738  -5.2423  -4.9753  -4.8471
    -4.6798  -4.6310  -4.5182  -4.3586  -4.2925  -4.1577  -4.0788  -3.9254
    -3.8220  -3.7327  -3.5981  -3.5324  -3.4837  -2.8552  -2.1462  -0.9280
    -0.9065  -0.8536  -0.7981  -0.7357  -0.6629  -0.5725  -0.5244  -0.4715
    -0.4437  -0.3610  -0.2833  -0.1443  -0.0233   0.2345   0.4227   0.4386
     0.5818   1.1107   1.1353   1.1506   1.2070   1.2396   1.3287   1.4374
     1.4450   1.4596   1.5229   1.6169   1.6468   2.0313   2.1777   2.1781
     2.2565   2.2591

          k =-0.5000-0.5573 0.0000 (120880 PWs)   bands (ev):

   -21.6655 -21.6481 -21.4915 -21.3723 -20.8634 -20.8614 -20.7563 -20.7491
   -20.6787 -20.6423 -20.5908 -20.2316 -19.8027 -19.7978 -19.5956 -19.4982
   -19.1387 -19.1365 -18.9546 -18.9067 -18.8181 -18.8116 -18.5987 -18.4639
   -18.4305 -18.4180 -18.2374 -18.2342 -18.2123 -18.1738 -17.9599 -17.5465
   -16.9244 -16.9211 -16.7705 -16.7380 -16.6698 -16.5138 -16.5051 -16.4095
   -16.3845 -15.9509 -15.5494 -15.5074 -15.5052 -15.3339 -15.3138 -15.3087
   -15.2179 -15.2115 -14.9745 -14.8465 -14.5049 -14.5040 -14.4253 -14.4223
   -14.3599 -14.3023 -14.0211 -13.4913 -13.0602 -13.0583 -12.9065 -12.8404
   -12.7115 -12.7087 -12.6731 -12.6730 -12.5490 -12.4426 -12.2481 -12.2447
   -12.2320 -12.1958 -11.9067 -11.4576 -11.4542 -11.4154 -11.1831 -11.0017
   -10.8596 -10.8572 -10.6093 -10.3422 -10.3075 -10.3047 -10.1329 -10.1195
   -10.1112  -9.9830  -9.9714  -9.8882  -9.7252  -9.6260  -9.6183  -9.6140
    -9.4572  -9.3728  -9.3719  -9.3387  -9.2853  -9.2834  -9.2431  -9.2044
    -9.1803  -9.1482  -9.0838  -9.0058  -9.0047  -8.9946  -8.9723  -8.9342
    -8.8650  -8.8629  -8.8474  -8.7519  -8.7137  -8.6569  -8.6334  -8.6072
    -8.5731  -8.5657  -8.5579  -8.2781  -8.2220  -8.1903  -8.1415  -8.1407
    -8.1295  -7.9950  -7.8933  -7.8094  -7.7282  -7.6591  -7.3346  -7.1494
    -7.1034  -7.0831  -7.0815  -7.0525  -7.0484  -7.0480  -7.0177  -6.9125
    -6.8746  -6.8070  -6.5990  -6.5240  -6.4508  -6.3344  -6.2887  -6.2868
    -6.2819  -6.2624  -6.1879  -6.1429  -6.0273  -5.9624  -5.9426  -5.8894
    -5.8571  -5.8524  -5.7800  -5.7541  -5.5934  -5.4931  -5.3000  -5.1083
    -4.7934  -4.6438  -4.5765  -4.5176  -4.4252  -4.3656  -4.2275  -4.2152
    -4.1459  -3.5643  -2.9868  -2.8916  -2.5971  -2.4774  -2.2174  -1.6875
    -1.6461  -1.5239  -1.2364  -0.6625  -0.6255  -0.5470  -0.4537  -0.3347
    -0.2972  -0.2528  -0.0690   0.0545   0.3491   0.4300   0.8757   0.8995
     1.1622   1.1792   1.2066   1.2409   1.3283   1.3464   1.4488   1.5632
     1.6295   1.7912   1.9165   1.9178   1.9330   1.9765   1.9939   2.1053
     2.1082   2.1111

          k =-0.5000-1.6243 0.0000 (120890 PWs)   bands (ev):

   -21.6916 -21.6664 -21.5307 -21.3559 -20.8028 -20.8000 -20.6933 -20.6900
   -20.6263 -20.5982 -20.4925 -20.2554 -19.9874 -19.9808 -19.7731 -19.6123
   -19.2399 -19.2365 -19.0498 -18.9952 -18.9188 -18.9089 -18.7212 -18.3929
   -18.1395 -18.1333 -17.9891 -17.9410 -17.9256 -17.8876 -17.6944 -17.3855
   -16.8003 -16.7935 -16.7894 -16.7854 -16.7121 -16.5853 -16.5785 -16.5488
   -16.5233 -16.4311 -16.4277 -16.2205 -16.1434 -15.5763 -15.5483 -15.2442
   -15.1579 -15.1525 -14.9814 -14.4805 -13.8987 -13.8974 -13.7533 -13.7525
   -13.7215 -13.7081 -13.7048 -13.6553 -13.5847 -13.5449 -13.2899 -13.0719
   -12.7916 -12.7909 -12.6832 -12.6796 -12.6181 -12.5926 -12.3249 -11.8241
   -11.6780 -11.6750 -11.6107 -11.6095 -11.5408 -11.5055 -11.4054 -11.4042
   -11.2444 -11.1275 -10.9109 -10.6861 -10.6771 -10.6750 -10.4069 -10.3037
   -10.1983 -10.1955 -10.1110 -10.0733 -10.0673 -10.0561 -10.0236  -9.8805
    -9.5750  -9.2789  -9.2443  -9.1169  -8.9458  -8.9208  -8.8792  -8.8545
    -8.8542  -8.7740  -8.7214  -8.7088  -8.6932  -8.6917  -8.6877  -8.6861
    -8.6453  -8.5924  -8.5848  -8.5792  -8.5739  -8.5736  -8.5525  -8.4842
    -8.4388  -8.3864  -8.3668  -8.3161  -8.2156  -8.2118  -8.1925  -8.1648
    -8.1492  -8.0399  -7.9794  -7.9399  -7.9128  -7.7633  -7.5651  -7.5627
    -7.5525  -7.3901  -7.2490  -7.2046  -7.1989  -7.1961  -7.1759  -7.0589
    -7.0129  -6.9479  -6.7420  -6.6517  -6.4458  -6.4343  -6.3501  -6.2954
    -6.1891  -6.1826  -6.1072  -6.0064  -5.9433  -5.9238  -5.8373  -5.8316
    -5.8264  -5.7530  -5.5927  -5.5356  -5.3627  -5.2072  -5.0083  -4.8273
    -4.6172  -4.4500  -4.4228  -4.3804  -4.3540  -4.3298  -4.3127  -4.1775
    -3.9538  -3.9305  -3.9210  -3.9085  -3.8286  -2.9848  -2.1934  -0.7982
    -0.6885  -0.5602  -0.5482  -0.4876  -0.4225  -0.3947  -0.3776  -0.3327
    -0.2613  -0.1761  -0.0866  -0.0086   0.3861   0.5080   0.7304   0.7726
     0.8401   0.8651   0.9103   0.9682   1.0647   1.0832   1.1467   1.1531
     1.2500   1.4675   1.8476   1.8864   1.8897   2.0152   2.0609   2.0631
     2.0781   2.0884

     the Fermi energy is    -2.3236 ev

!    total energy              =   -1711.94864632 Ry
     Harris-Foulkes estimate   =   -1711.94865007 Ry
     estimated scf accuracy    <       0.00000043 Ry

     total all-electron energy =     -6969.840178 Ry

     The total energy is the sum of the following terms:

     one-electron contribution =  -29115.22215844 Ry
     hartree contribution      =   14627.03107108 Ry
     xc contribution           =    -434.42197153 Ry
     ewald contribution        =   13794.87608833 Ry
     one-center paw contrib.   =    -583.77590242 Ry
     smearing contrib. (-TS)   =      -0.43577335 Ry

     convergence has been achieved in  24 iterations

     Writing output data file C91.save/

     init_run     :    140.79s CPU    143.02s WALL (       1 calls)
     electrons    :   5795.54s CPU   5869.30s WALL (       1 calls)

     Called by init_run:
     wfcinit      :    126.48s CPU    127.59s WALL (       1 calls)
     potinit      :      4.93s CPU      5.55s WALL (       1 calls)
     hinit0       :      2.28s CPU      2.32s WALL (       1 calls)

     Called by electrons:
     c_bands      :   4861.95s CPU   4900.64s WALL (      24 calls)
     sum_band     :    652.60s CPU    664.56s WALL (      24 calls)
     v_of_rho     :    104.57s CPU    116.86s WALL (      25 calls)
     newd         :     97.84s CPU    105.07s WALL (      25 calls)
     PAW_pot      :      2.54s CPU      2.55s WALL (      25 calls)
     mix_rho      :     82.24s CPU     86.54s WALL (      24 calls)

     Called by c_bands:
     init_us_2    :      9.92s CPU     10.01s WALL (     196 calls)
     cegterg      :   4841.12s CPU   4879.51s WALL (      96 calls)

     Called by sum_band:
     sum_band:bec :      0.29s CPU      0.29s WALL (      96 calls)
     addusdens    :     94.75s CPU    101.37s WALL (      24 calls)

     Called by *egterg:
     h_psi        :   2476.73s CPU   2502.76s WALL (     935 calls)
     s_psi        :    833.65s CPU    835.58s WALL (     935 calls)
     g_psi        :      1.00s CPU      1.01s WALL (     835 calls)
     cdiaghg      :    169.24s CPU    171.41s WALL (     931 calls)

     Called by h_psi:
     h_psi:pot    :   2475.46s CPU   2499.12s WALL (     935 calls)
     h_psi:calbec :   1079.25s CPU   1082.16s WALL (     935 calls)
     vloc_psi     :    322.05s CPU    340.25s WALL (     935 calls)
     add_vuspsi   :   1074.13s CPU   1076.70s WALL (     935 calls)

     General routines
     calbec       :   1528.49s CPU   1532.58s WALL (    1031 calls)
     fft          :    102.88s CPU    105.46s WALL (    1573 calls)
     ffts         :     41.65s CPU     45.42s WALL (    8316 calls)
     fftw         :    361.36s CPU    382.07s WALL (  120328 calls)
     interpolate  :      1.72s CPU      1.81s WALL (      25 calls)

     Parallel routines
     fft_scatt_xy :     55.30s CPU     57.68s WALL (  130217 calls)
     fft_scatt_yz :    266.53s CPU    284.56s WALL (  130217 calls)

     PWSCF        :      1h38m CPU      1h40m WALL


   This run was terminated on:   1:49:21   9Oct2024            

=------------------------------------------------------------------------------=
   JOB DONE.
=------------------------------------------------------------------------------=
