
     Program PWSCF v.6.4.1 starts on 19May2024 at  0:48:52 

     This program is part of the open-source Quantum ESPRESSO suite
     for quantum simulation of materials; please cite
         "P. Giannozzi et al., J. Phys.:Condens. Matter 21 395502 (2009);
         "P. Giannozzi et al., J. Phys.:Condens. Matter 29 465901 (2017);
          URL http://www.quantum-espresso.org", 
     in publications or presentations arising from this work. More details at
     http://www.quantum-espresso.org/quote

     Parallel version (MPI), running on    32 processors

     MPI processes distributed on     1 nodes
     R & G space division:  proc/nbgrp/npool/nimage =      32
     Reading input from v2o5.vc.in
Warning: card O       -0.000000000   0.048914545   0.643203052 ignored

     Current dimensions of program PWSCF are:
     Max number of different atomic species (ntypx) = 10
     Max number of k-points (npk) =  40000
     Max angular momentum in pseudopotentials (lmaxx) =  3

     IMPORTANT: XC functional enforced from input :
     Exchange-correlation      = VDW-DF ( 1  4  4  0 1 0)
     Any further DFT definition will be discarded
     Please, verify this is what you really want


     Subspace diagonalization in iterative solution of the eigenvalue problem:
     one sub-group per band group will be used
     ELPA distributed-memory algorithm (size of sub-group:  4*  4 procs)


     Parallelization info
     --------------------
     sticks:   dense  smooth     PW     G-vecs:    dense   smooth      PW
     Min          29      29      8                 1965     1965     287
     Max          30      30      9                 1974     1974     290
     Sum         953     953    265                63019    63019    9241



     bravais-lattice index     =            8
     lattice parameter (alat)  =       6.7676  a.u.
     unit-cell volume          =    1320.1235 (a.u.)^3
     number of atoms/cell      =           14
     number of atomic types    =            2
     number of electrons       =       112.00
     number of Kohn-Sham states=           56
     kinetic-energy cutoff     =      50.0000  Ry
     charge density cutoff     =     200.0000  Ry
     convergence threshold     =      1.0E-10
     mixing beta               =       0.7000
     number of iterations used =            8  plain     mixing
     Exchange-correlation      = VDW-DF ( 1  4  4  0 1 0)
     nstep                     =          500


     celldm(1)=   6.767583  celldm(2)=   1.308375  celldm(3)=   3.255230
     celldm(4)=   0.000000  celldm(5)=   0.000000  celldm(6)=   0.000000

     crystal axes: (cart. coord. in units of alat)
               a(1) = (   1.000000   0.000000   0.000000 )  
               a(2) = (   0.000000   1.308375   0.000000 )  
               a(3) = (   0.000000   0.000000   3.255230 )  

     reciprocal axes: (cart. coord. in units 2 pi/alat)
               b(1) = (  1.000000  0.000000  0.000000 )  
               b(2) = (  0.000000  0.764307  0.000000 )  
               b(3) = (  0.000000  0.000000  0.307198 )  


     PseudoPot. # 1 for V  read from file:
     /home/mpicuntureo/pseudos/v.nc.upf
     MD5 check sum: 40fb93c06b4f9d8c28c5ccd071294a04
     Pseudo is Norm-conserving + core correction, Zval = 13.0
     Generated using ONCVPSP code by D. R. Hamann
     Using radial grid of 1536 points,  6 beta functions with: 
                l(1) =   0
                l(2) =   0
                l(3) =   1
                l(4) =   1
                l(5) =   2
                l(6) =   2

     PseudoPot. # 2 for O  read from file:
     /home/mpicuntureo/pseudos/o.nc.upf
     MD5 check sum: 3e3f909f7470e8921608ab6b1f57bbae
     Pseudo is Norm-conserving + core correction, Zval =  6.0
     Generated using ONCVPSP code by D. R. Hamann
     Using radial grid of  936 points,  5 beta functions with: 
                l(1) =   0
                l(2) =   0
                l(3) =   1
                l(4) =   1
                l(5) =   2

     vdW kernel table read from file vdW_kernel_table
     MD5 check sum: 8c4337f4b28e1601c069d7ef7b6561bc

     atomic species   valence    mass     pseudopotential
        V             13.00    50.94150     V ( 1.00)
        O              6.00    15.99940     O ( 1.00)

      8 Sym. Ops., with inversion, found ( 4 have fractional translation)



   Cartesian axes

     site n.     atom                  positions (alat units)
         1           V   tau(   1) = (   0.0000000   0.5083212   2.1085108  )
         2           V   tau(   2) = (   0.5000000   0.8000533   2.7743339  )
         3           V   tau(   3) = (   0.5000000   0.8000533   0.4808959  )
         4           V   tau(   4) = (   0.0000000   0.5083212   1.1467190  )
         5           O   tau(   5) = (   0.5000000   0.6458297   2.2175314  )
         6           O   tau(   6) = (   0.0000000   0.6625449   2.6653133  )
         7           O   tau(   7) = (   0.0000000   0.6625449   0.5899165  )
         8           O   tau(   8) = (   0.5000000   0.6458297   1.0376984  )
         9           O   tau(   9) = (   0.0000000   0.0639985   1.1614561  )
        10           O   tau(  10) = (   0.5000000   1.2443760   0.4661588  )
        11           O   tau(  11) = (   0.5000000   1.2443760   2.7890710  )
        12           O   tau(  12) = (   0.5000000   0.6549630   0.0000000  )
        13           O   tau(  13) = (   0.0000000   0.6534115   1.6276149  )
        14           O   tau(  14) = (   0.0000000   0.0639985   2.0937737  )

     number of k points=     4
                       cart. coord. in units 2pi/alat
        k(    1) = (   0.0000000   0.0000000   0.0000000), wk =   0.2222222
        k(    2) = (   0.0000000   0.2547691   0.0000000), wk =   0.4444444
        k(    3) = (   0.3333333   0.0000000   0.0000000), wk =   0.4444444
        k(    4) = (   0.3333333   0.2547691   0.0000000), wk =   0.8888889

     Dense  grid:    63019 G-vectors     FFT dimensions: (  32,  40, 100)

     Estimated max dynamical RAM per process >       9.93 MB

     Estimated total dynamical RAM >     317.85 MB

     Check: negative core charge=   -0.000163

     Initial potential from superposition of free atoms

     starting charge  111.99579, renormalised to  112.00000


     %%%%%%%%%%%%%%%%%%%%%%%%%%%%%%%%%%%%%%%%%%%%%%%%%%%%%%%%%%%%%%%%%%%%%%%%
     %                                                                      %
     % You are using vdW-DF, which was implemented by the Thonhauser group. %
     % Please cite the following two papers that made this development      %
     % possible and the two reviews that describe the various versions:     %
     %                                                                      %
     %   T. Thonhauser et al., PRL 115, 136402 (2015).                      %
     %   T. Thonhauser et al., PRB 76, 125112 (2007).                       %
     %   K. Berland et al., Rep. Prog. Phys. 78, 066501 (2015).             %
     %   D.C. Langreth et al., J. Phys.: Condens. Matter 21, 084203 (2009). %
     %                                                                      %
     %                                                                      %
     % If you are calculating the stress with vdW-DF, please also cite:     %
     %                                                                      %
     %   R. Sabatini et al., J. Phys.: Condens. Matter 24, 424209 (2012).   %
     %                                                                      %
     %%%%%%%%%%%%%%%%%%%%%%%%%%%%%%%%%%%%%%%%%%%%%%%%%%%%%%%%%%%%%%%%%%%%%%%%


     Starting wfcs are   80 randomized atomic wfcs

     total cpu time spent up to now is        0.9 secs

     Self-consistent Calculation

     iteration #  1     ecut=    50.00 Ry     beta= 0.70
     Davidson diagonalization with overlap
     ethr =  1.00E-02,  avg # of iterations =  2.0

     total cpu time spent up to now is        1.3 secs

     total energy              =    -920.04278958 Ry
     Harris-Foulkes estimate   =    -926.91131367 Ry
     estimated scf accuracy    <       8.60949011 Ry

     iteration #  2     ecut=    50.00 Ry     beta= 0.70
     Davidson diagonalization with overlap
     ethr =  7.69E-03,  avg # of iterations =  6.2

     total cpu time spent up to now is        2.4 secs

     total energy              =    -910.26085433 Ry
     Harris-Foulkes estimate   =    -943.30873140 Ry
     estimated scf accuracy    <     145.47140434 Ry

     iteration #  3     ecut=    50.00 Ry     beta= 0.70
     Davidson diagonalization with overlap
     ethr =  7.69E-03,  avg # of iterations =  5.5

     total cpu time spent up to now is        3.4 secs

     total energy              =    -924.98027050 Ry
     Harris-Foulkes estimate   =    -925.88129061 Ry
     estimated scf accuracy    <       3.01744094 Ry

     iteration #  4     ecut=    50.00 Ry     beta= 0.70
     Davidson diagonalization with overlap
     ethr =  2.69E-03,  avg # of iterations =  3.8

     total cpu time spent up to now is        4.0 secs

     total energy              =    -925.17361654 Ry
     Harris-Foulkes estimate   =    -925.32375336 Ry
     estimated scf accuracy    <       0.97432765 Ry

     iteration #  5     ecut=    50.00 Ry     beta= 0.70
     Davidson diagonalization with overlap
     ethr =  8.70E-04,  avg # of iterations =  3.8

     total cpu time spent up to now is        4.5 secs

     total energy              =    -925.08122017 Ry
     Harris-Foulkes estimate   =    -925.23764469 Ry
     estimated scf accuracy    <       0.52707195 Ry

     iteration #  6     ecut=    50.00 Ry     beta= 0.70
     Davidson diagonalization with overlap
     ethr =  4.71E-04,  avg # of iterations =  4.0

     total cpu time spent up to now is        5.2 secs

     total energy              =    -925.24027365 Ry
     Harris-Foulkes estimate   =    -925.26227667 Ry
     estimated scf accuracy    <       0.24660631 Ry

     iteration #  7     ecut=    50.00 Ry     beta= 0.70
     Davidson diagonalization with overlap
     ethr =  2.20E-04,  avg # of iterations =  2.0

     total cpu time spent up to now is        5.6 secs

     total energy              =    -925.20249589 Ry
     Harris-Foulkes estimate   =    -925.24336532 Ry
     estimated scf accuracy    <       0.18969626 Ry

     iteration #  8     ecut=    50.00 Ry     beta= 0.70
     Davidson diagonalization with overlap
     ethr =  1.69E-04,  avg # of iterations =  3.8

     total cpu time spent up to now is        6.2 secs

     total energy              =    -925.23283642 Ry
     Harris-Foulkes estimate   =    -925.23438658 Ry
     estimated scf accuracy    <       0.00875618 Ry

     iteration #  9     ecut=    50.00 Ry     beta= 0.70
     Davidson diagonalization with overlap
     ethr =  7.82E-06,  avg # of iterations =  3.5

     total cpu time spent up to now is        6.7 secs

     total energy              =    -925.23318170 Ry
     Harris-Foulkes estimate   =    -925.23377469 Ry
     estimated scf accuracy    <       0.00535375 Ry

     iteration # 10     ecut=    50.00 Ry     beta= 0.70
     Davidson diagonalization with overlap
     ethr =  4.78E-06,  avg # of iterations =  3.0

     total cpu time spent up to now is        7.2 secs

     total energy              =    -925.23273986 Ry
     Harris-Foulkes estimate   =    -925.23340645 Ry
     estimated scf accuracy    <       0.00293892 Ry

     iteration # 11     ecut=    50.00 Ry     beta= 0.70
     Davidson diagonalization with overlap
     ethr =  2.62E-06,  avg # of iterations =  4.0

     total cpu time spent up to now is        7.9 secs

     total energy              =    -925.23352463 Ry
     Harris-Foulkes estimate   =    -925.23366961 Ry
     estimated scf accuracy    <       0.00065272 Ry

     iteration # 12     ecut=    50.00 Ry     beta= 0.70
     Davidson diagonalization with overlap
     ethr =  5.83E-07,  avg # of iterations =  2.5

     total cpu time spent up to now is        8.3 secs

     total energy              =    -925.23348082 Ry
     Harris-Foulkes estimate   =    -925.23355299 Ry
     estimated scf accuracy    <       0.00026838 Ry

     iteration # 13     ecut=    50.00 Ry     beta= 0.70
     Davidson diagonalization with overlap
     ethr =  2.40E-07,  avg # of iterations =  4.0

     total cpu time spent up to now is        9.0 secs

     total energy              =    -925.23356930 Ry
     Harris-Foulkes estimate   =    -925.23358560 Ry
     estimated scf accuracy    <       0.00009750 Ry

     iteration # 14     ecut=    50.00 Ry     beta= 0.70
     Davidson diagonalization with overlap
     ethr =  8.70E-08,  avg # of iterations =  1.8

     total cpu time spent up to now is        9.4 secs

     total energy              =    -925.23356256 Ry
     Harris-Foulkes estimate   =    -925.23357169 Ry
     estimated scf accuracy    <       0.00005669 Ry

     iteration # 15     ecut=    50.00 Ry     beta= 0.70
     Davidson diagonalization with overlap
     ethr =  5.06E-08,  avg # of iterations =  4.0

     total cpu time spent up to now is       10.0 secs

     total energy              =    -925.23357123 Ry
     Harris-Foulkes estimate   =    -925.23357171 Ry
     estimated scf accuracy    <       0.00000297 Ry

     iteration # 16     ecut=    50.00 Ry     beta= 0.70
     Davidson diagonalization with overlap
     ethr =  2.65E-09,  avg # of iterations =  5.0

     total cpu time spent up to now is       10.7 secs

     total energy              =    -925.23357203 Ry
     Harris-Foulkes estimate   =    -925.23357214 Ry
     estimated scf accuracy    <       0.00000090 Ry

     iteration # 17     ecut=    50.00 Ry     beta= 0.70
     Davidson diagonalization with overlap
     ethr =  8.03E-10,  avg # of iterations =  3.8

     total cpu time spent up to now is       11.3 secs

     total energy              =    -925.23357201 Ry
     Harris-Foulkes estimate   =    -925.23357214 Ry
     estimated scf accuracy    <       0.00000079 Ry

     iteration # 18     ecut=    50.00 Ry     beta= 0.70
     Davidson diagonalization with overlap
     ethr =  7.04E-10,  avg # of iterations =  3.5

     total cpu time spent up to now is       11.7 secs

     total energy              =    -925.23357199 Ry
     Harris-Foulkes estimate   =    -925.23357204 Ry
     estimated scf accuracy    <       0.00000036 Ry

     iteration # 19     ecut=    50.00 Ry     beta= 0.70
     Davidson diagonalization with overlap
     ethr =  3.25E-10,  avg # of iterations =  3.8

     total cpu time spent up to now is       12.3 secs

     total energy              =    -925.23357203 Ry
     Harris-Foulkes estimate   =    -925.23357204 Ry
     estimated scf accuracy    <       0.00000006 Ry

     iteration # 20     ecut=    50.00 Ry     beta= 0.70
     Davidson diagonalization with overlap
     ethr =  5.78E-11,  avg # of iterations =  4.2

     total cpu time spent up to now is       12.9 secs

     total energy              =    -925.23357204 Ry
     Harris-Foulkes estimate   =    -925.23357204 Ry
     estimated scf accuracy    <       0.00000003 Ry

     iteration # 21     ecut=    50.00 Ry     beta= 0.70
     Davidson diagonalization with overlap
     ethr =  3.03E-11,  avg # of iterations =  1.2

     total cpu time spent up to now is       13.2 secs

     total energy              =    -925.23357204 Ry
     Harris-Foulkes estimate   =    -925.23357204 Ry
     estimated scf accuracy    <       0.00000003 Ry

     iteration # 22     ecut=    50.00 Ry     beta= 0.70
     Davidson diagonalization with overlap
     ethr =  2.52E-11,  avg # of iterations =  4.2

     total cpu time spent up to now is       13.8 secs

     total energy              =    -925.23357204 Ry
     Harris-Foulkes estimate   =    -925.23357204 Ry
     estimated scf accuracy    <       0.00000002 Ry

     iteration # 23     ecut=    50.00 Ry     beta= 0.70
     Davidson diagonalization with overlap
     ethr =  1.67E-11,  avg # of iterations =  2.5

     total cpu time spent up to now is       14.3 secs

     total energy              =    -925.23357204 Ry
     Harris-Foulkes estimate   =    -925.23357204 Ry
     estimated scf accuracy    <       0.00000001 Ry

     iteration # 24     ecut=    50.00 Ry     beta= 0.70
     Davidson diagonalization with overlap
     ethr =  9.57E-12,  avg # of iterations =  2.2

     total cpu time spent up to now is       14.7 secs

     total energy              =    -925.23357204 Ry
     Harris-Foulkes estimate   =    -925.23357204 Ry
     estimated scf accuracy    <          7.0E-09 Ry

     iteration # 25     ecut=    50.00 Ry     beta= 0.70
     Davidson diagonalization with overlap
     ethr =  6.29E-12,  avg # of iterations =  3.8

     total cpu time spent up to now is       15.2 secs

     total energy              =    -925.23357204 Ry
     Harris-Foulkes estimate   =    -925.23357204 Ry
     estimated scf accuracy    <          3.5E-09 Ry

     iteration # 26     ecut=    50.00 Ry     beta= 0.70
     Davidson diagonalization with overlap
     ethr =  3.15E-12,  avg # of iterations =  5.0

     total cpu time spent up to now is       16.1 secs

     total energy              =    -925.23357204 Ry
     Harris-Foulkes estimate   =    -925.23357204 Ry
     estimated scf accuracy    <       0.00000001 Ry

     iteration # 27     ecut=    50.00 Ry     beta= 0.70
     Davidson diagonalization with overlap
     ethr =  3.15E-12,  avg # of iterations =  4.0

     total cpu time spent up to now is       16.6 secs

     total energy              =    -925.23357204 Ry
     Harris-Foulkes estimate   =    -925.23357204 Ry
     estimated scf accuracy    <          3.7E-09 Ry

     iteration # 28     ecut=    50.00 Ry     beta= 0.70
     Davidson diagonalization with overlap
     ethr =  3.15E-12,  avg # of iterations =  1.0

     total cpu time spent up to now is       17.0 secs

     total energy              =    -925.23357204 Ry
     Harris-Foulkes estimate   =    -925.23357204 Ry
     estimated scf accuracy    <          3.6E-09 Ry

     iteration # 29     ecut=    50.00 Ry     beta= 0.70
     Davidson diagonalization with overlap
     ethr =  3.15E-12,  avg # of iterations =  1.0

     total cpu time spent up to now is       17.4 secs

     total energy              =    -925.23357204 Ry
     Harris-Foulkes estimate   =    -925.23357204 Ry
     estimated scf accuracy    <          3.1E-09 Ry

     iteration # 30     ecut=    50.00 Ry     beta= 0.70
     Davidson diagonalization with overlap
     ethr =  2.75E-12,  avg # of iterations =  1.0

     total cpu time spent up to now is       17.7 secs

     total energy              =    -925.23357204 Ry
     Harris-Foulkes estimate   =    -925.23357204 Ry
     estimated scf accuracy    <          2.2E-09 Ry

     iteration # 31     ecut=    50.00 Ry     beta= 0.70
     Davidson diagonalization with overlap
     ethr =  1.94E-12,  avg # of iterations =  4.2

     total cpu time spent up to now is       18.5 secs

     total energy              =    -925.23357204 Ry
     Harris-Foulkes estimate   =    -925.23357204 Ry
     estimated scf accuracy    <          2.0E-09 Ry

     iteration # 32     ecut=    50.00 Ry     beta= 0.70
     Davidson diagonalization with overlap
     ethr =  1.81E-12,  avg # of iterations =  1.0

     total cpu time spent up to now is       18.9 secs

     total energy              =    -925.23357204 Ry
     Harris-Foulkes estimate   =    -925.23357204 Ry
     estimated scf accuracy    <          1.4E-09 Ry

     iteration # 33     ecut=    50.00 Ry     beta= 0.70
     Davidson diagonalization with overlap
     ethr =  1.29E-12,  avg # of iterations =  4.0

     total cpu time spent up to now is       19.5 secs

     total energy              =    -925.23357204 Ry
     Harris-Foulkes estimate   =    -925.23357204 Ry
     estimated scf accuracy    <          6.4E-10 Ry

     iteration # 34     ecut=    50.00 Ry     beta= 0.70
     Davidson diagonalization with overlap
     ethr =  5.68E-13,  avg # of iterations =  4.0

     total cpu time spent up to now is       20.0 secs

     total energy              =    -925.23357204 Ry
     Harris-Foulkes estimate   =    -925.23357204 Ry
     estimated scf accuracy    <          5.2E-10 Ry

     iteration # 35     ecut=    50.00 Ry     beta= 0.70
     Davidson diagonalization with overlap
     ethr =  4.64E-13,  avg # of iterations =  3.5

     total cpu time spent up to now is       20.5 secs

     total energy              =    -925.23357204 Ry
     Harris-Foulkes estimate   =    -925.23357204 Ry
     estimated scf accuracy    <          1.7E-10 Ry

     iteration # 36     ecut=    50.00 Ry     beta= 0.70
     Davidson diagonalization with overlap
     ethr =  1.55E-13,  avg # of iterations =  4.8

     total cpu time spent up to now is       21.3 secs

     total energy              =    -925.23357204 Ry
     Harris-Foulkes estimate   =    -925.23357204 Ry
     estimated scf accuracy    <          6.5E-10 Ry

     iteration # 37     ecut=    50.00 Ry     beta= 0.70
     Davidson diagonalization with overlap
     ethr =  1.55E-13,  avg # of iterations =  1.0

     total cpu time spent up to now is       21.6 secs

     total energy              =    -925.23357204 Ry
     Harris-Foulkes estimate   =    -925.23357204 Ry
     estimated scf accuracy    <          5.1E-10 Ry

     iteration # 38     ecut=    50.00 Ry     beta= 0.70
     Davidson diagonalization with overlap
     ethr =  1.55E-13,  avg # of iterations =  4.0

     total cpu time spent up to now is       22.4 secs

     End of self-consistent calculation

          k = 0.0000 0.0000 0.0000 (  7893 PWs)   bands (ev):

   -61.3919 -61.3836 -61.3815 -61.3736 -35.4415 -35.4387 -35.4313 -35.4259
   -35.3646 -35.3212 -35.3040 -35.2761 -35.2745 -35.2607 -35.2493 -35.2466
   -14.3667 -14.2579 -13.3770 -13.2471 -13.1770 -13.1632 -12.8129 -12.8060
   -12.6749 -12.6721  -1.1334  -1.1138  -1.0262  -0.9287  -0.8022  -0.4133
     0.2491   0.3634   0.5325   0.6085   0.7560   0.8037   0.8926   0.9472
     0.9971   1.0325   1.3227   1.3600   1.4643   1.5291   1.6147   1.6155
     1.8115   2.0376   2.1741   2.2180   2.3288   2.5172   2.5183   2.6146

          k = 0.0000 0.2548 0.0000 (  7904 PWs)   bands (ev):

   -61.3894 -61.3879 -61.3794 -61.3764 -35.4421 -35.4403 -35.4326 -35.4282
   -35.3647 -35.3206 -35.3044 -35.2766 -35.2743 -35.2600 -35.2488 -35.2470
   -14.3218 -14.2216 -13.3349 -13.2312 -13.1760 -13.1481 -12.8272 -12.8015
   -12.6791 -12.6494  -1.1581  -1.1490  -1.0481  -0.9579  -0.9100  -0.5738
    -0.4387  -0.1989  -0.1556  -0.0047   0.4340   0.5837   0.6431   0.9832
     1.1108   1.3328   1.4719   1.4827   1.6191   1.7055   1.8231   1.9221
     2.1742   2.1827   2.1849   2.3603   2.4136   2.6273   2.6952   2.7832

          k = 0.3333 0.0000 0.0000 (  7839 PWs)   bands (ev):

   -61.3772 -61.3766 -61.3762 -61.3736 -35.4356 -35.4332 -35.4283 -35.4255
   -35.3623 -35.3409 -35.3273 -35.3206 -35.2847 -35.2779 -35.2662 -35.2588
   -13.8450 -13.7260 -13.2851 -13.1514 -13.1447 -13.1229 -12.7539 -12.7534
   -12.7152 -12.6934  -1.5863  -1.5097  -0.7984  -0.7759  -0.7040  -0.3589
    -0.2473   0.1084   0.1383   0.4210   0.4427   0.4910   0.8022   0.9158
     0.9782   1.0003   1.0203   1.1091   1.2511   1.2809   1.4614   1.5105
     1.5835   1.9463   2.2609   2.3292   2.4511   2.6234   2.7976   2.8172

          k = 0.3333 0.2548 0.0000 (  7878 PWs)   bands (ev):

   -61.3840 -61.3790 -61.3768 -61.3766 -35.4368 -35.4349 -35.4311 -35.4277
   -35.3621 -35.3405 -35.3271 -35.3205 -35.2846 -35.2786 -35.2665 -35.2590
   -13.8076 -13.6991 -13.2566 -13.1495 -13.1347 -13.1105 -12.7624 -12.7414
   -12.6886 -12.6652  -1.5792  -1.5046  -0.8347  -0.8255  -0.7723  -0.4543
    -0.4098  -0.2800  -0.1812   0.0002   0.0599   0.1964   0.5480   0.5975
     0.6631   0.7530   0.8378   0.9328   1.0101   1.4659   1.7036   1.8759
     2.0904   2.1431   2.4834   2.6996   2.7128   2.8517   2.9253   2.9483

     highest occupied level (ev):     2.9483

!    total energy              =    -925.23357204 Ry
     Harris-Foulkes estimate   =    -925.23357204 Ry
     estimated scf accuracy    <          3.7E-11 Ry

     The total energy is the sum of the following terms:

     one-electron contribution =    -624.73234725 Ry
     hartree contribution      =     348.36037194 Ry
     xc contribution           =    -177.78488576 Ry
     ewald contribution        =    -471.07671097 Ry

     convergence has been achieved in  38 iterations

     Forces acting on atoms (cartesian axes, Ry/au):

     atom    1 type  1   force =     0.00000000   -0.01752676   -0.00312709
     atom    2 type  1   force =     0.00000000    0.01752676    0.00312709
     atom    3 type  1   force =     0.00000000    0.01752676   -0.00312709
     atom    4 type  1   force =     0.00000000   -0.01752676    0.00312709
     atom    5 type  2   force =     0.00000000    0.00195141    0.00981298
     atom    6 type  2   force =     0.00000000   -0.00195141   -0.00981298
     atom    7 type  2   force =     0.00000000   -0.00195141    0.00981298
     atom    8 type  2   force =    -0.00000000    0.00195141   -0.00981298
     atom    9 type  2   force =     0.00000000    0.01270550   -0.00275025
     atom   10 type  2   force =     0.00000000   -0.01270550    0.00275025
     atom   11 type  2   force =     0.00000000   -0.01270550   -0.00275025
     atom   12 type  2   force =     0.00000000    0.00468827   -0.00000000
     atom   13 type  2   force =     0.00000000   -0.00468827   -0.00000000
     atom   14 type  2   force =     0.00000000    0.01270550    0.00275025

     Total force =     0.048869     Total SCF correction =     0.000013


     Computing stress (Cartesian axis) and pressure

          total   stress  (Ry/bohr**3)                   (kbar)     P= -444.62
  -0.00302385   0.00000000   0.00000000       -444.82      0.00      0.00
   0.00000000  -0.00300434   0.00000000          0.00   -441.95      0.00
   0.00000000   0.00000000  -0.00303925          0.00      0.00   -447.09


     BFGS Geometry Optimization

     number of scf cycles    =   1
     number of bfgs steps    =   0

     enthalpy new            =    -925.2335720396 Ry

     new trust radius        =       0.5000000000 bohr
     new conv_thr            =            1.0E-10 Ry

     new unit-cell volume =   1067.24665 a.u.^3 (   158.14963 Ang^3 )
     density =      3.81941 g/cm^3

CELL_PARAMETERS (alat=  6.76758343)
   0.931541726   0.000000000   0.000000000
   0.000000000   1.219383435   0.000000000
   0.000000000   0.000000000   3.031247103

ATOMIC_POSITIONS (crystal)
V        0.000000000   0.386721052   0.647601718
V        0.500000023   0.613278993   0.852398351
V        0.500000023   0.613278993   0.147601695
V        0.000000000   0.386721052   0.352398328
O        0.500000023   0.493811831   0.681624560
O        0.000000000   0.506188215   0.818375509
O        0.000000000   0.506188215   0.181624536
O        0.500000023   0.493811831   0.318375486
O        0.000000000   0.050213975   0.356683920
O        0.500000023   0.949786071   0.143316103
O        0.500000023   0.949786071   0.856683943
O        0.500000023   0.501072439  -0.000000000
O        0.000000000   0.498927606   0.500000023
O        0.000000000   0.050213975   0.643316126



     Writing output data file v2o5.save/
     NEW-OLD atomic charge density approx. for the potential

     Check: negative core charge=   -0.000062
     extrapolated charge   85.46335, renormalised to  112.00000

     total cpu time spent up to now is       23.6 secs

     Self-consistent Calculation

     iteration #  1     ecut=    50.00 Ry     beta= 0.70
     Davidson diagonalization with overlap
     c_bands:  1 eigenvalues not converged
     c_bands:  1 eigenvalues not converged
     c_bands:  2 eigenvalues not converged
     ethr =  1.00E-06,  avg # of iterations = 19.5

     total cpu time spent up to now is       26.5 secs

     total energy              =    -731.60053203 Ry
     Harris-Foulkes estimate   =   -1072.10205920 Ry
     estimated scf accuracy    <     207.41389948 Ry

     iteration #  2     ecut=    50.00 Ry     beta= 0.70
     Davidson diagonalization with overlap
     ethr =  1.00E-02,  avg # of iterations =  7.8

     total cpu time spent up to now is       28.4 secs

     total energy              =    -847.86257358 Ry
     Harris-Foulkes estimate   =   -1190.77113594 Ry
     estimated scf accuracy    <     940.34117519 Ry

     iteration #  3     ecut=    50.00 Ry     beta= 0.70
     Davidson diagonalization with overlap
     ethr =  1.00E-02,  avg # of iterations =  7.2

     total cpu time spent up to now is       29.7 secs

     total energy              =    -938.77072589 Ry
     Harris-Foulkes estimate   =    -960.04869852 Ry
     estimated scf accuracy    <      85.14286181 Ry

     iteration #  4     ecut=    50.00 Ry     beta= 0.70
     Davidson diagonalization with overlap
     ethr =  1.00E-02,  avg # of iterations =  3.5

     total cpu time spent up to now is       30.4 secs

     total energy              =    -931.91022151 Ry
     Harris-Foulkes estimate   =    -941.87268994 Ry
     estimated scf accuracy    <      42.58335076 Ry

     iteration #  5     ecut=    50.00 Ry     beta= 0.70
     Davidson diagonalization with overlap
     ethr =  1.00E-02,  avg # of iterations =  2.0

     negative rho (up, down):  6.177E-07 0.000E+00

     total cpu time spent up to now is       30.8 secs

     total energy              =    -926.09694495 Ry
     Harris-Foulkes estimate   =    -932.68546157 Ry
     estimated scf accuracy    <      23.61593806 Ry

     iteration #  6     ecut=    50.00 Ry     beta= 0.70
     Davidson diagonalization with overlap
     ethr =  1.00E-02,  avg # of iterations =  3.0

     negative rho (up, down):  4.667E-04 0.000E+00

     total cpu time spent up to now is       31.3 secs

     total energy              =    -926.33105254 Ry
     Harris-Foulkes estimate   =    -927.35943004 Ry
     estimated scf accuracy    <       8.28963023 Ry

     iteration #  7     ecut=    50.00 Ry     beta= 0.70
     Davidson diagonalization with overlap
     ethr =  7.40E-03,  avg # of iterations =  1.0

     negative rho (up, down):  8.310E-03 0.000E+00

     total cpu time spent up to now is       31.7 secs

     total energy              =    -924.68981814 Ry
     Harris-Foulkes estimate   =    -926.48027493 Ry
     estimated scf accuracy    <       6.24831385 Ry

     iteration #  8     ecut=    50.00 Ry     beta= 0.70
     Davidson diagonalization with overlap
     ethr =  5.58E-03,  avg # of iterations =  3.2

     total cpu time spent up to now is       32.2 secs

     total energy              =    -925.70702931 Ry
     Harris-Foulkes estimate   =    -925.38381180 Ry
     estimated scf accuracy    <       0.71762042 Ry

     iteration #  9     ecut=    50.00 Ry     beta= 0.70
     Davidson diagonalization with overlap
     ethr =  6.41E-04,  avg # of iterations =  4.0

     total cpu time spent up to now is       32.9 secs

     total energy              =    -925.96770271 Ry
     Harris-Foulkes estimate   =    -925.93890158 Ry
     estimated scf accuracy    <       2.34757895 Ry

     iteration # 10     ecut=    50.00 Ry     beta= 0.70
     Davidson diagonalization with overlap
     ethr =  6.41E-04,  avg # of iterations =  1.0

     total cpu time spent up to now is       33.3 secs

     total energy              =    -924.85482051 Ry
     Harris-Foulkes estimate   =    -925.97408497 Ry
     estimated scf accuracy    <       2.41439309 Ry

     iteration # 11     ecut=    50.00 Ry     beta= 0.70
     Davidson diagonalization with overlap
     ethr =  6.41E-04,  avg # of iterations =  5.0

     total cpu time spent up to now is       34.3 secs

     total energy              =    -925.41665316 Ry
     Harris-Foulkes estimate   =    -925.45945887 Ry
     estimated scf accuracy    <       0.44587864 Ry

     iteration # 12     ecut=    50.00 Ry     beta= 0.70
     Davidson diagonalization with overlap
     ethr =  3.98E-04,  avg # of iterations =  1.0

     total cpu time spent up to now is       34.7 secs

     total energy              =    -925.36830554 Ry
     Harris-Foulkes estimate   =    -925.41965360 Ry
     estimated scf accuracy    <       0.31802080 Ry

     iteration # 13     ecut=    50.00 Ry     beta= 0.70
     Davidson diagonalization with overlap
     ethr =  2.84E-04,  avg # of iterations =  3.0

     total cpu time spent up to now is       35.2 secs

     total energy              =    -925.38577932 Ry
     Harris-Foulkes estimate   =    -925.39345618 Ry
     estimated scf accuracy    <       0.03252946 Ry

     iteration # 14     ecut=    50.00 Ry     beta= 0.70
     Davidson diagonalization with overlap
     ethr =  2.90E-05,  avg # of iterations =  4.8

     total cpu time spent up to now is       35.9 secs

     total energy              =    -925.40301965 Ry
     Harris-Foulkes estimate   =    -925.40051516 Ry
     estimated scf accuracy    <       0.00724382 Ry

     iteration # 15     ecut=    50.00 Ry     beta= 0.70
     Davidson diagonalization with overlap
     ethr =  6.47E-06,  avg # of iterations =  4.0

     total cpu time spent up to now is       36.7 secs

     total energy              =    -925.39954733 Ry
     Harris-Foulkes estimate   =    -925.40761438 Ry
     estimated scf accuracy    <       0.05494578 Ry

     iteration # 16     ecut=    50.00 Ry     beta= 0.70
     Davidson diagonalization with overlap
     ethr =  6.47E-06,  avg # of iterations =  4.0

     total cpu time spent up to now is       37.4 secs

     total energy              =    -925.39825534 Ry
     Harris-Foulkes estimate   =    -925.40125704 Ry
     estimated scf accuracy    <       0.01486086 Ry

     iteration # 17     ecut=    50.00 Ry     beta= 0.70
     Davidson diagonalization with overlap
     ethr =  6.47E-06,  avg # of iterations =  3.8

     total cpu time spent up to now is       38.0 secs

     total energy              =    -925.39880784 Ry
     Harris-Foulkes estimate   =    -925.39916778 Ry
     estimated scf accuracy    <       0.00187147 Ry

     iteration # 18     ecut=    50.00 Ry     beta= 0.70
     Davidson diagonalization with overlap
     ethr =  1.67E-06,  avg # of iterations =  4.0

     total cpu time spent up to now is       38.6 secs

     total energy              =    -925.39902741 Ry
     Harris-Foulkes estimate   =    -925.39911430 Ry
     estimated scf accuracy    <       0.00022876 Ry

     iteration # 19     ecut=    50.00 Ry     beta= 0.70
     Davidson diagonalization with overlap
     ethr =  2.04E-07,  avg # of iterations =  4.0

     total cpu time spent up to now is       39.3 secs

     total energy              =    -925.39911409 Ry
     Harris-Foulkes estimate   =    -925.39921768 Ry
     estimated scf accuracy    <       0.00044276 Ry

     iteration # 20     ecut=    50.00 Ry     beta= 0.70
     Davidson diagonalization with overlap
     ethr =  2.04E-07,  avg # of iterations =  3.8

     total cpu time spent up to now is       39.9 secs

     total energy              =    -925.39914128 Ry
     Harris-Foulkes estimate   =    -925.39914962 Ry
     estimated scf accuracy    <       0.00002561 Ry

     iteration # 21     ecut=    50.00 Ry     beta= 0.70
     Davidson diagonalization with overlap
     ethr =  2.29E-08,  avg # of iterations =  4.2

     total cpu time spent up to now is       40.7 secs

     total energy              =    -925.39914870 Ry
     Harris-Foulkes estimate   =    -925.39915010 Ry
     estimated scf accuracy    <       0.00000318 Ry

     iteration # 22     ecut=    50.00 Ry     beta= 0.70
     Davidson diagonalization with overlap
     ethr =  2.84E-09,  avg # of iterations =  4.0

     total cpu time spent up to now is       41.4 secs

     total energy              =    -925.39914987 Ry
     Harris-Foulkes estimate   =    -925.39914985 Ry
     estimated scf accuracy    <       0.00000151 Ry

     iteration # 23     ecut=    50.00 Ry     beta= 0.70
     Davidson diagonalization with overlap
     ethr =  1.35E-09,  avg # of iterations =  1.0

     total cpu time spent up to now is       41.8 secs

     total energy              =    -925.39914940 Ry
     Harris-Foulkes estimate   =    -925.39914989 Ry
     estimated scf accuracy    <       0.00000158 Ry

     iteration # 24     ecut=    50.00 Ry     beta= 0.70
     Davidson diagonalization with overlap
     ethr =  1.35E-09,  avg # of iterations =  3.2

     total cpu time spent up to now is       42.4 secs

     total energy              =    -925.39914959 Ry
     Harris-Foulkes estimate   =    -925.39914960 Ry
     estimated scf accuracy    <       0.00000002 Ry

     iteration # 25     ecut=    50.00 Ry     beta= 0.70
     Davidson diagonalization with overlap
     ethr =  1.95E-11,  avg # of iterations =  5.8

     total cpu time spent up to now is       43.3 secs

     total energy              =    -925.39914961 Ry
     Harris-Foulkes estimate   =    -925.39914962 Ry
     estimated scf accuracy    <       0.00000003 Ry

     iteration # 26     ecut=    50.00 Ry     beta= 0.70
     Davidson diagonalization with overlap
     ethr =  1.95E-11,  avg # of iterations =  4.0

     total cpu time spent up to now is       44.0 secs

     End of self-consistent calculation

          k = 0.0000 0.0000 0.0000 (  7893 PWs)   bands (ev):

   -58.0451 -58.0378 -58.0197 -58.0122 -32.5206 -32.5151 -32.4977 -32.4873
   -32.1461 -32.0320 -31.9882 -31.9161 -31.9103 -31.8759 -31.8480 -31.8420
   -12.5949 -12.4231 -11.1955 -11.1681 -11.0236 -10.8130 -10.3109 -10.2867
   -10.0836 -10.0772   0.5486   0.5505   0.5623   0.5853   1.0701   1.4324
     1.8921   1.9776   2.2121   2.4884   2.6541   2.7144   3.0972   3.0993
     3.1696   3.3864   3.4025   3.4131   3.4303   3.4781   3.7143   3.9353
     3.9641   4.3461   4.6140   4.7038   4.7314   4.7395   4.7638   5.0399

          k = 0.0000 0.2734 0.0000 (  7904 PWs)   bands (ev):

   -58.0435 -58.0395 -58.0189 -58.0135 -32.5226 -32.5170 -32.5026 -32.4923
   -32.1455 -32.0313 -31.9881 -31.9159 -31.9100 -31.8759 -31.8480 -31.8421
   -12.5226 -12.3637 -11.1643 -11.1485 -10.9887 -10.7917 -10.3063 -10.2544
   -10.0539  -9.9931   0.4868   0.4994   0.5090   0.5297   0.6379   0.8422
     1.4490   1.4783   1.4953   1.7275   2.3596   2.4409   2.4892   3.1037
     3.1043   3.1917   3.4316   3.7711   3.9283   4.0301   4.0833   4.2546
     4.5307   4.6707   4.7291   4.7413   4.7449   4.9237   5.1244   5.1408

          k = 0.3578 0.0000 0.0000 (  7839 PWs)   bands (ev):

   -58.0301 -58.0259 -58.0193 -58.0141 -32.5077 -32.5017 -32.4945 -32.4860
   -32.1374 -32.0812 -32.0526 -32.0317 -31.9422 -31.9295 -31.8941 -31.8727
   -11.8347 -11.6300 -11.0773 -10.8788 -10.7820 -10.7171 -10.2103 -10.1878
   -10.1172 -10.1079  -0.0077   0.1714   0.7575   0.9719   1.1953   1.5064
     1.5086   1.6873   1.8915   2.0623   2.1239   2.1486   2.6896   2.9013
     3.0063   3.0970   3.1786   3.2031   3.5162   3.6812   3.6881   3.7299
     3.8760   4.1096   4.4191   4.5952   4.7659   4.7908   5.0786   5.2501

          k = 0.3578 0.2734 0.0000 (  7878 PWs)   bands (ev):

   -58.0328 -58.0266 -58.0196 -58.0149 -32.5102 -32.5042 -32.4987 -32.4901
   -32.1368 -32.0808 -32.0520 -32.0313 -31.9422 -31.9296 -31.8942 -31.8729
   -11.7728 -11.5851 -11.0523 -10.8761 -10.7493 -10.7019 -10.1897 -10.1391
   -10.0626 -10.0099  -0.0016   0.1708   0.6457   0.8139   0.8724   0.9493
     1.3331   1.4031   1.5855   1.6039   1.7740   2.1050   2.4289   2.7096
     2.7266   2.7998   2.9889   2.9972   3.0835   3.5141   3.7720   4.1494
     4.4509   4.6289   4.7451   4.9558   5.0512   5.1630   5.2747   5.4075

     highest occupied level (ev):     5.4075

!    total energy              =    -925.39914962 Ry
     Harris-Foulkes estimate   =    -925.39914962 Ry
     estimated scf accuracy    <          5.1E-11 Ry

     The total energy is the sum of the following terms:

     one-electron contribution =    -576.37734869 Ry
     hartree contribution      =     335.72439405 Ry
     xc contribution           =    -180.17598436 Ry
     ewald contribution        =    -504.57021062 Ry

     convergence has been achieved in  26 iterations

     Forces acting on atoms (cartesian axes, Ry/au):

     atom    1 type  1   force =     0.00000000    0.20697959    0.05310424
     atom    2 type  1   force =     0.00000000   -0.20697959   -0.05310424
     atom    3 type  1   force =     0.00000000   -0.20697959    0.05310424
     atom    4 type  1   force =     0.00000000    0.20697959   -0.05310424
     atom    5 type  2   force =     0.00000000    0.03849525   -0.03314166
     atom    6 type  2   force =     0.00000000   -0.03849525    0.03314166
     atom    7 type  2   force =     0.00000000   -0.03849525   -0.03314166
     atom    8 type  2   force =    -0.00000000    0.03849525    0.03314166
     atom    9 type  2   force =     0.00000000   -0.33533653    0.01272055
     atom   10 type  2   force =     0.00000000    0.33533653   -0.01272055
     atom   11 type  2   force =    -0.00000000    0.33533653    0.01272055
     atom   12 type  2   force =    -0.00000000   -0.09379854    0.00000000
     atom   13 type  2   force =     0.00000000    0.09379854    0.00000000
     atom   14 type  2   force =     0.00000000   -0.33533653   -0.01272055

     Total force =     0.813025     Total SCF correction =     0.000021


     Computing stress (Cartesian axis) and pressure

          total   stress  (Ry/bohr**3)                   (kbar)     P=  325.10
   0.00175000   0.00000000   0.00000000        257.43      0.00      0.00
   0.00000000   0.00287772   0.00000000          0.00    423.33      0.00
   0.00000000   0.00000000   0.00200215          0.00      0.00    294.53


     number of scf cycles    =   2
     number of bfgs steps    =   1

     enthalpy old            =    -925.2335720396 Ry
     enthalpy new            =    -925.3991496159 Ry

     CASE: enthalpy_new < enthalpy_old

     new trust radius        =       0.1717430412 bohr
     new conv_thr            =            1.0E-10 Ry

     new unit-cell volume =   1099.68765 a.u.^3 (   162.95689 Ang^3 )
     density =      3.70673 g/cm^3

CELL_PARAMETERS (alat=  6.76758343)
   0.934918866   0.000000000   0.000000000
   0.000000000   1.243140702   0.000000000
   0.000000000   0.000000000   3.052630796

ATOMIC_POSITIONS (crystal)
V        0.000000000   0.399278264   0.648911449
V        0.500000020   0.600721776   0.851088612
V        0.500000020   0.600721776   0.148911428
V        0.000000000   0.399278264   0.351088592
O        0.500000020   0.496298268   0.680898713
O        0.000000000   0.503701773   0.819101350
O        0.000000000   0.503701773   0.180898691
O        0.500000020   0.496298268   0.319101329
O        0.000000000   0.029414913   0.356974348
O        0.500000020   0.970585128   0.143025673
O        0.500000020   0.970585128   0.856974368
O        0.500000020   0.495287498  -0.000000000
O        0.000000000   0.504712542   0.500000020
O        0.000000000   0.029414913   0.643025693



     Writing output data file v2o5.save/
     NEW-OLD atomic charge density approx. for the potential

     Check: negative core charge=   -0.000073
     extrapolated charge  115.30390, renormalised to  112.00000

     total cpu time spent up to now is       45.3 secs

     Self-consistent Calculation

     iteration #  1     ecut=    50.00 Ry     beta= 0.70
     Davidson diagonalization with overlap
     ethr =  1.00E-06,  avg # of iterations = 12.2

     total cpu time spent up to now is       47.4 secs

     total energy              =    -923.07333630 Ry
     Harris-Foulkes estimate   =    -912.11188712 Ry
     estimated scf accuracy    <       2.45344145 Ry

     iteration #  2     ecut=    50.00 Ry     beta= 0.70
     Davidson diagonalization with overlap
     ethr =  2.19E-03,  avg # of iterations =  9.5

     total cpu time spent up to now is       48.7 secs

     total energy              =    -918.68702341 Ry
     Harris-Foulkes estimate   =    -935.77047083 Ry
     estimated scf accuracy    <     109.13669268 Ry

     iteration #  3     ecut=    50.00 Ry     beta= 0.70
     Davidson diagonalization with overlap
     ethr =  2.19E-03,  avg # of iterations =  7.0

     total cpu time spent up to now is       49.8 secs

     total energy              =    -925.45244317 Ry
     Harris-Foulkes estimate   =    -925.63783693 Ry
     estimated scf accuracy    <       0.54688412 Ry

     iteration #  4     ecut=    50.00 Ry     beta= 0.70
     Davidson diagonalization with overlap
     ethr =  4.88E-04,  avg # of iterations =  4.0

     total cpu time spent up to now is       50.4 secs

     total energy              =    -925.49236278 Ry
     Harris-Foulkes estimate   =    -925.52193873 Ry
     estimated scf accuracy    <       0.19438344 Ry

     iteration #  5     ecut=    50.00 Ry     beta= 0.70
     Davidson diagonalization with overlap
     ethr =  1.74E-04,  avg # of iterations =  3.0

     total cpu time spent up to now is       50.9 secs

     total energy              =    -925.48270083 Ry
     Harris-Foulkes estimate   =    -925.50247226 Ry
     estimated scf accuracy    <       0.11525141 Ry

     iteration #  6     ecut=    50.00 Ry     beta= 0.70
     Davidson diagonalization with overlap
     ethr =  1.03E-04,  avg # of iterations =  3.8

     total cpu time spent up to now is       51.3 secs

     total energy              =    -925.47861936 Ry
     Harris-Foulkes estimate   =    -925.48866267 Ry
     estimated scf accuracy    <       0.04976636 Ry

     iteration #  7     ecut=    50.00 Ry     beta= 0.70
     Davidson diagonalization with overlap
     ethr =  4.44E-05,  avg # of iterations =  4.0

     total cpu time spent up to now is       52.0 secs

     total energy              =    -925.49446862 Ry
     Harris-Foulkes estimate   =    -925.49510559 Ry
     estimated scf accuracy    <       0.01109014 Ry

     iteration #  8     ecut=    50.00 Ry     beta= 0.70
     Davidson diagonalization with overlap
     ethr =  9.90E-06,  avg # of iterations =  3.2

     total cpu time spent up to now is       52.5 secs

     total energy              =    -925.49226639 Ry
     Harris-Foulkes estimate   =    -925.49469262 Ry
     estimated scf accuracy    <       0.01059773 Ry

     iteration #  9     ecut=    50.00 Ry     beta= 0.70
     Davidson diagonalization with overlap
     ethr =  9.46E-06,  avg # of iterations =  4.0

     total cpu time spent up to now is       53.1 secs

     total energy              =    -925.49346748 Ry
     Harris-Foulkes estimate   =    -925.49373003 Ry
     estimated scf accuracy    <       0.00102705 Ry

     iteration # 10     ecut=    50.00 Ry     beta= 0.70
     Davidson diagonalization with overlap
     ethr =  9.17E-07,  avg # of iterations =  4.2

     total cpu time spent up to now is       53.7 secs

     total energy              =    -925.49369405 Ry
     Harris-Foulkes estimate   =    -925.49368816 Ry
     estimated scf accuracy    <       0.00008425 Ry

     iteration # 11     ecut=    50.00 Ry     beta= 0.70
     Davidson diagonalization with overlap
     ethr =  7.52E-08,  avg # of iterations =  4.2

     total cpu time spent up to now is       54.4 secs

     total energy              =    -925.49366924 Ry
     Harris-Foulkes estimate   =    -925.49371861 Ry
     estimated scf accuracy    <       0.00018412 Ry

     iteration # 12     ecut=    50.00 Ry     beta= 0.70
     Davidson diagonalization with overlap
     ethr =  7.52E-08,  avg # of iterations =  4.8

     total cpu time spent up to now is       55.2 secs

     total energy              =    -925.49369645 Ry
     Harris-Foulkes estimate   =    -925.49369745 Ry
     estimated scf accuracy    <       0.00001182 Ry

     iteration # 13     ecut=    50.00 Ry     beta= 0.70
     Davidson diagonalization with overlap
     ethr =  1.06E-08,  avg # of iterations =  2.5

     total cpu time spent up to now is       55.6 secs

     total energy              =    -925.49369571 Ry
     Harris-Foulkes estimate   =    -925.49369674 Ry
     estimated scf accuracy    <       0.00000963 Ry

     iteration # 14     ecut=    50.00 Ry     beta= 0.70
     Davidson diagonalization with overlap
     ethr =  8.60E-09,  avg # of iterations =  1.0

     total cpu time spent up to now is       56.0 secs

     total energy              =    -925.49369482 Ry
     Harris-Foulkes estimate   =    -925.49369594 Ry
     estimated scf accuracy    <       0.00000529 Ry

     iteration # 15     ecut=    50.00 Ry     beta= 0.70
     Davidson diagonalization with overlap
     ethr =  4.73E-09,  avg # of iterations =  4.0

     total cpu time spent up to now is       56.7 secs

     total energy              =    -925.49369607 Ry
     Harris-Foulkes estimate   =    -925.49369641 Ry
     estimated scf accuracy    <       0.00000187 Ry

     iteration # 16     ecut=    50.00 Ry     beta= 0.70
     Davidson diagonalization with overlap
     ethr =  1.67E-09,  avg # of iterations =  1.5

     total cpu time spent up to now is       57.0 secs

     total energy              =    -925.49369590 Ry
     Harris-Foulkes estimate   =    -925.49369612 Ry
     estimated scf accuracy    <       0.00000090 Ry

     iteration # 17     ecut=    50.00 Ry     beta= 0.70
     Davidson diagonalization with overlap
     ethr =  8.07E-10,  avg # of iterations =  4.5

     total cpu time spent up to now is       57.8 secs

     total energy              =    -925.49369622 Ry
     Harris-Foulkes estimate   =    -925.49369627 Ry
     estimated scf accuracy    <       0.00000071 Ry

     iteration # 18     ecut=    50.00 Ry     beta= 0.70
     Davidson diagonalization with overlap
     ethr =  6.36E-10,  avg # of iterations =  1.0

     total cpu time spent up to now is       58.2 secs

     total energy              =    -925.49369612 Ry
     Harris-Foulkes estimate   =    -925.49369622 Ry
     estimated scf accuracy    <       0.00000055 Ry

     iteration # 19     ecut=    50.00 Ry     beta= 0.70
     Davidson diagonalization with overlap
     ethr =  4.91E-10,  avg # of iterations =  3.8

     total cpu time spent up to now is       58.7 secs

     total energy              =    -925.49369618 Ry
     Harris-Foulkes estimate   =    -925.49369618 Ry
     estimated scf accuracy    <       0.00000001 Ry

     iteration # 20     ecut=    50.00 Ry     beta= 0.70
     Davidson diagonalization with overlap
     ethr =  1.14E-11,  avg # of iterations =  5.5

     total cpu time spent up to now is       59.7 secs

     total energy              =    -925.49369619 Ry
     Harris-Foulkes estimate   =    -925.49369619 Ry
     estimated scf accuracy    <          6.2E-09 Ry

     iteration # 21     ecut=    50.00 Ry     beta= 0.70
     Davidson diagonalization with overlap
     ethr =  5.57E-12,  avg # of iterations =  4.0

     total cpu time spent up to now is       60.3 secs

     total energy              =    -925.49369619 Ry
     Harris-Foulkes estimate   =    -925.49369619 Ry
     estimated scf accuracy    <          1.2E-09 Ry

     iteration # 22     ecut=    50.00 Ry     beta= 0.70
     Davidson diagonalization with overlap
     ethr =  1.09E-12,  avg # of iterations =  3.8

     total cpu time spent up to now is       60.8 secs

     total energy              =    -925.49369619 Ry
     Harris-Foulkes estimate   =    -925.49369619 Ry
     estimated scf accuracy    <          1.2E-09 Ry

     iteration # 23     ecut=    50.00 Ry     beta= 0.70
     Davidson diagonalization with overlap
     ethr =  1.05E-12,  avg # of iterations =  3.5

     total cpu time spent up to now is       61.4 secs

     total energy              =    -925.49369619 Ry
     Harris-Foulkes estimate   =    -925.49369619 Ry
     estimated scf accuracy    <          2.2E-09 Ry

     iteration # 24     ecut=    50.00 Ry     beta= 0.70
     Davidson diagonalization with overlap
     ethr =  1.05E-12,  avg # of iterations =  3.8

     total cpu time spent up to now is       61.9 secs

     total energy              =    -925.49369619 Ry
     Harris-Foulkes estimate   =    -925.49369619 Ry
     estimated scf accuracy    <          7.3E-10 Ry

     iteration # 25     ecut=    50.00 Ry     beta= 0.70
     Davidson diagonalization with overlap
     ethr =  6.49E-13,  avg # of iterations =  1.8

     total cpu time spent up to now is       62.3 secs

     total energy              =    -925.49369619 Ry
     Harris-Foulkes estimate   =    -925.49369619 Ry
     estimated scf accuracy    <          5.8E-10 Ry

     iteration # 26     ecut=    50.00 Ry     beta= 0.70
     Davidson diagonalization with overlap
     ethr =  5.20E-13,  avg # of iterations =  2.5

     total cpu time spent up to now is       62.7 secs

     total energy              =    -925.49369619 Ry
     Harris-Foulkes estimate   =    -925.49369619 Ry
     estimated scf accuracy    <          3.7E-10 Ry

     iteration # 27     ecut=    50.00 Ry     beta= 0.70
     Davidson diagonalization with overlap
     ethr =  3.27E-13,  avg # of iterations =  4.0

     total cpu time spent up to now is       63.3 secs

     End of self-consistent calculation

          k = 0.0000 0.0000 0.0000 (  7893 PWs)   bands (ev):

   -58.8746 -58.8666 -58.8433 -58.8375 -33.0551 -32.9672 -32.8940 -32.8825
   -32.8779 -32.8047 -32.8022 -32.7998 -32.7182 -32.7078 -32.6902 -32.6811
   -13.3939 -13.2487 -12.1422 -12.1291 -11.6443 -11.4607 -10.3367 -10.2880
   -10.0722 -10.0268  -0.2382  -0.1721  -0.1361  -0.1008   0.5221   1.1345
     1.3258   1.7114   2.1592   2.3149   2.5186   2.5824   2.8475   2.8597
     3.2015   3.2785   3.4882   3.5489   3.7450   3.8385   3.8925   3.9015
     4.0254   4.1226   4.2875   4.3009   4.7653   4.8885   4.9462   5.1036

          k = 0.0000 0.2681 0.0000 (  7904 PWs)   bands (ev):

   -58.8721 -58.8706 -58.8434 -58.8371 -33.0549 -32.9672 -32.8947 -32.8825
   -32.8777 -32.8046 -32.8030 -32.7999 -32.7196 -32.7092 -32.6930 -32.6838
   -13.3535 -13.2163 -12.1314 -12.1192 -11.6179 -11.4487 -10.3134 -10.2421
   -10.0251  -9.9478  -0.2472  -0.1897  -0.1561  -0.1264   0.3594   0.7484
     1.1090   1.2805   1.5519   1.7351   2.3734   2.4505   2.5757   2.8285
     2.8769   3.1805   3.2242   3.3748   3.7217   3.8301   3.9562   4.1102
     4.4844   4.5346   4.5642   4.7557   4.7983   4.8155   5.0725   5.1965

          k = 0.3565 0.0000 0.0000 (  7839 PWs)   bands (ev):

   -58.8583 -58.8550 -58.8439 -58.8388 -33.0606 -33.0188 -33.0077 -32.9923
   -32.8708 -32.8687 -32.8260 -32.7960 -32.7052 -32.6994 -32.6933 -32.6880
   -12.6057 -12.4406 -11.8722 -11.7781 -11.4862 -11.3805 -10.2166 -10.1707
   -10.0902 -10.0516  -0.8359  -0.6999   0.0535   0.2251   0.6561   0.8026
     0.8042   1.1516   1.5835   1.6697   1.9440   2.3135   2.5932   2.7248
     2.9037   3.2495   3.2650   3.5427   3.7250   3.8423   3.8470   3.9620
     3.9638   4.0236   4.1777   4.4895   4.7141   4.7379   4.9379   5.0127

          k = 0.3565 0.2681 0.0000 (  7878 PWs)   bands (ev):

   -58.8607 -58.8552 -58.8450 -58.8412 -33.0605 -33.0186 -33.0077 -32.9921
   -32.8710 -32.8691 -32.8260 -32.7966 -32.7071 -32.7013 -32.6961 -32.6904
   -12.5746 -12.4182 -11.8671 -11.7755 -11.4615 -11.3706 -10.1753 -10.1067
   -10.0300  -9.9598  -0.8362  -0.7017   0.0323   0.1937   0.5626   0.7030
     0.7382   0.8195   1.1899   1.5734   1.6621   1.8238   2.1400   2.4616
     2.5460   2.8786   2.9329   3.0756   3.3908   3.5442   3.7623   4.1915
     4.4162   4.5780   4.7406   4.8380   4.8432   5.0357   5.0547   5.2028

     highest occupied level (ev):     5.2028

!    total energy              =    -925.49369619 Ry
     Harris-Foulkes estimate   =    -925.49369619 Ry
     estimated scf accuracy    <          1.1E-11 Ry

     The total energy is the sum of the following terms:

     one-electron contribution =    -565.29718045 Ry
     hartree contribution      =     327.83874856 Ry
     xc contribution           =    -179.14095509 Ry
     ewald contribution        =    -508.89430921 Ry

     convergence has been achieved in  27 iterations

     Forces acting on atoms (cartesian axes, Ry/au):

     atom    1 type  1   force =    -0.00000000   -0.18577942   -0.01681280
     atom    2 type  1   force =     0.00000000    0.18577942    0.01681280
     atom    3 type  1   force =     0.00000000    0.18577942   -0.01681280
     atom    4 type  1   force =    -0.00000000   -0.18577942    0.01681280
     atom    5 type  2   force =     0.00000000    0.03490009   -0.02537301
     atom    6 type  2   force =     0.00000000   -0.03490009    0.02537301
     atom    7 type  2   force =     0.00000000   -0.03490009   -0.02537301
     atom    8 type  2   force =     0.00000000    0.03490009    0.02537301
     atom    9 type  2   force =     0.00000000    0.07409441    0.00019807
     atom   10 type  2   force =     0.00000000   -0.07409441   -0.00019807
     atom   11 type  2   force =     0.00000000   -0.07409441    0.00019807
     atom   12 type  2   force =     0.00000000   -0.06363620   -0.00000000
     atom   13 type  2   force =     0.00000000    0.06363620   -0.00000000
     atom   14 type  2   force =     0.00000000    0.07409441   -0.00019807

     Total force =     0.420349     Total SCF correction =     0.000014


     Computing stress (Cartesian axis) and pressure

          total   stress  (Ry/bohr**3)                   (kbar)     P=   31.47
   0.00147706   0.00000000   0.00000000        217.28      0.00      0.00
   0.00000000  -0.00209668   0.00000000          0.00   -308.43      0.00
   0.00000000   0.00000000   0.00126134          0.00      0.00    185.55


     number of scf cycles    =   3
     number of bfgs steps    =   2

     enthalpy old            =    -925.3991496159 Ry
     enthalpy new            =    -925.4936961922 Ry

     CASE: enthalpy_new < enthalpy_old

     new trust radius        =       0.2473891260 bohr
     new conv_thr            =            1.0E-10 Ry

     new unit-cell volume =   1158.68093 a.u.^3 (   171.69880 Ang^3 )
     density =      3.51801 g/cm^3

CELL_PARAMETERS (alat=  6.76758343)
   0.969791911   0.000000000   0.000000000
   0.000000000   1.220342535   0.000000000
   0.000000000   0.000000000   3.158658653

ATOMIC_POSITIONS (crystal)
V       -0.000000000   0.389769463   0.648915009
V        0.500000019   0.610230574   0.851085047
V        0.500000019   0.610230574   0.148914991
V        0.000000000   0.389769463   0.351085028
O        0.500000019   0.499999701   0.679764877
O        0.000000000   0.500000336   0.820235180
O        0.000000000   0.500000336   0.179764857
O        0.500000019   0.499999701   0.320235161
O        0.000000000   0.026947244   0.357109648
O        0.500000019   0.973052794   0.142890371
O        0.500000019   0.973052794   0.857109667
O        0.500000019   0.487933566  -0.000000000
O        0.000000000   0.512066471   0.500000019
O        0.000000000   0.026947244   0.642890390



     Writing output data file v2o5.save/
     NEW-OLD atomic charge density approx. for the potential

     Check: negative core charge=   -0.000096
     extrapolated charge  117.70217, renormalised to  112.00000

     total cpu time spent up to now is       64.6 secs

     Self-consistent Calculation

     iteration #  1     ecut=    50.00 Ry     beta= 0.70
     Davidson diagonalization with overlap
     ethr =  1.00E-06,  avg # of iterations = 12.0

     total cpu time spent up to now is       66.7 secs

     total energy              =    -921.49951248 Ry
     Harris-Foulkes estimate   =    -902.76001165 Ry
     estimated scf accuracy    <       3.54738885 Ry

     iteration #  2     ecut=    50.00 Ry     beta= 0.70
     Davidson diagonalization with overlap
     ethr =  3.17E-03,  avg # of iterations =  9.2

     total cpu time spent up to now is       68.1 secs

     total energy              =    -917.33343705 Ry
     Harris-Foulkes estimate   =    -940.50998569 Ry
     estimated scf accuracy    <     141.44159436 Ry

     iteration #  3     ecut=    50.00 Ry     beta= 0.70
     Davidson diagonalization with overlap
     ethr =  3.17E-03,  avg # of iterations =  5.8

     total cpu time spent up to now is       69.2 secs

     total energy              =    -925.56820300 Ry
     Harris-Foulkes estimate   =    -925.96678499 Ry
     estimated scf accuracy    <       1.51485190 Ry

     iteration #  4     ecut=    50.00 Ry     beta= 0.70
     Davidson diagonalization with overlap
     ethr =  1.35E-03,  avg # of iterations =  4.0

     total cpu time spent up to now is       69.7 secs

     total energy              =    -925.60764996 Ry
     Harris-Foulkes estimate   =    -925.68863084 Ry
     estimated scf accuracy    <       0.81696298 Ry

     iteration #  5     ecut=    50.00 Ry     beta= 0.70
     Davidson diagonalization with overlap
     ethr =  7.29E-04,  avg # of iterations =  1.0

     total cpu time spent up to now is       70.1 secs

     total energy              =    -925.53772835 Ry
     Harris-Foulkes estimate   =    -925.62361143 Ry
     estimated scf accuracy    <       0.59053712 Ry

     iteration #  6     ecut=    50.00 Ry     beta= 0.70
     Davidson diagonalization with overlap
     ethr =  5.27E-04,  avg # of iterations =  2.2

     total cpu time spent up to now is       70.5 secs

     total energy              =    -925.50819794 Ry
     Harris-Foulkes estimate   =    -925.55766455 Ry
     estimated scf accuracy    <       0.30479423 Ry

     iteration #  7     ecut=    50.00 Ry     beta= 0.70
     Davidson diagonalization with overlap
     ethr =  2.72E-04,  avg # of iterations =  4.0

     total cpu time spent up to now is       71.1 secs

     total energy              =    -925.57978566 Ry
     Harris-Foulkes estimate   =    -925.58255729 Ry
     estimated scf accuracy    <       0.04802993 Ry

     iteration #  8     ecut=    50.00 Ry     beta= 0.70
     Davidson diagonalization with overlap
     ethr =  4.29E-05,  avg # of iterations =  2.5

     total cpu time spent up to now is       71.6 secs

     total energy              =    -925.57789264 Ry
     Harris-Foulkes estimate   =    -925.58106491 Ry
     estimated scf accuracy    <       0.04342617 Ry

     iteration #  9     ecut=    50.00 Ry     beta= 0.70
     Davidson diagonalization with overlap
     ethr =  3.88E-05,  avg # of iterations =  1.0

     total cpu time spent up to now is       71.9 secs

     total energy              =    -925.56769210 Ry
     Harris-Foulkes estimate   =    -925.57837184 Ry
     estimated scf accuracy    <       0.03124630 Ry

     iteration # 10     ecut=    50.00 Ry     beta= 0.70
     Davidson diagonalization with overlap
     ethr =  2.79E-05,  avg # of iterations =  4.0

     total cpu time spent up to now is       72.7 secs

     total energy              =    -925.57405652 Ry
     Harris-Foulkes estimate   =    -925.57654119 Ry
     estimated scf accuracy    <       0.02072268 Ry

     iteration # 11     ecut=    50.00 Ry     beta= 0.70
     Davidson diagonalization with overlap
     ethr =  1.85E-05,  avg # of iterations =  2.0

     total cpu time spent up to now is       73.1 secs

     total energy              =    -925.57168815 Ry
     Harris-Foulkes estimate   =    -925.57499334 Ry
     estimated scf accuracy    <       0.01752948 Ry

     iteration # 12     ecut=    50.00 Ry     beta= 0.70
     Davidson diagonalization with overlap
     ethr =  1.57E-05,  avg # of iterations =  3.0

     total cpu time spent up to now is       73.5 secs

     total energy              =    -925.57193895 Ry
     Harris-Foulkes estimate   =    -925.57250671 Ry
     estimated scf accuracy    <       0.00477696 Ry

     iteration # 13     ecut=    50.00 Ry     beta= 0.70
     Davidson diagonalization with overlap
     ethr =  4.27E-06,  avg # of iterations =  4.0

     total cpu time spent up to now is       74.2 secs

     total energy              =    -925.57319284 Ry
     Harris-Foulkes estimate   =    -925.57324179 Ry
     estimated scf accuracy    <       0.00040083 Ry

     iteration # 14     ecut=    50.00 Ry     beta= 0.70
     Davidson diagonalization with overlap
     ethr =  3.58E-07,  avg # of iterations =  4.0

     total cpu time spent up to now is       74.7 secs

     total energy              =    -925.57308557 Ry
     Harris-Foulkes estimate   =    -925.57321885 Ry
     estimated scf accuracy    <       0.00033633 Ry

     iteration # 15     ecut=    50.00 Ry     beta= 0.70
     Davidson diagonalization with overlap
     ethr =  3.00E-07,  avg # of iterations =  4.5

     total cpu time spent up to now is       75.5 secs

     total energy              =    -925.57315646 Ry
     Harris-Foulkes estimate   =    -925.57319459 Ry
     estimated scf accuracy    <       0.00020675 Ry

     iteration # 16     ecut=    50.00 Ry     beta= 0.70
     Davidson diagonalization with overlap
     ethr =  1.85E-07,  avg # of iterations =  3.0

     total cpu time spent up to now is       76.0 secs

     total energy              =    -925.57315062 Ry
     Harris-Foulkes estimate   =    -925.57316405 Ry
     estimated scf accuracy    <       0.00009065 Ry

     iteration # 17     ecut=    50.00 Ry     beta= 0.70
     Davidson diagonalization with overlap
     ethr =  8.09E-08,  avg # of iterations =  4.0

     total cpu time spent up to now is       76.6 secs

     total energy              =    -925.57316715 Ry
     Harris-Foulkes estimate   =    -925.57316961 Ry
     estimated scf accuracy    <       0.00000958 Ry

     iteration # 18     ecut=    50.00 Ry     beta= 0.70
     Davidson diagonalization with overlap
     ethr =  8.55E-09,  avg # of iterations =  4.2

     total cpu time spent up to now is       77.2 secs

     total energy              =    -925.57316774 Ry
     Harris-Foulkes estimate   =    -925.57316819 Ry
     estimated scf accuracy    <       0.00000193 Ry

     iteration # 19     ecut=    50.00 Ry     beta= 0.70
     Davidson diagonalization with overlap
     ethr =  1.72E-09,  avg # of iterations =  4.0

     total cpu time spent up to now is       77.9 secs

     total energy              =    -925.57316834 Ry
     Harris-Foulkes estimate   =    -925.57316848 Ry
     estimated scf accuracy    <       0.00000076 Ry

     iteration # 20     ecut=    50.00 Ry     beta= 0.70
     Davidson diagonalization with overlap
     ethr =  6.80E-10,  avg # of iterations =  1.0

     total cpu time spent up to now is       78.2 secs

     total energy              =    -925.57316829 Ry
     Harris-Foulkes estimate   =    -925.57316836 Ry
     estimated scf accuracy    <       0.00000038 Ry

     iteration # 21     ecut=    50.00 Ry     beta= 0.70
     Davidson diagonalization with overlap
     ethr =  3.43E-10,  avg # of iterations =  4.0

     total cpu time spent up to now is       78.9 secs

     total energy              =    -925.57316838 Ry
     Harris-Foulkes estimate   =    -925.57316838 Ry
     estimated scf accuracy    <       0.00000003 Ry

     iteration # 22     ecut=    50.00 Ry     beta= 0.70
     Davidson diagonalization with overlap
     ethr =  2.88E-11,  avg # of iterations =  3.8

     total cpu time spent up to now is       79.4 secs

     total energy              =    -925.57316838 Ry
     Harris-Foulkes estimate   =    -925.57316839 Ry
     estimated scf accuracy    <       0.00000004 Ry

     iteration # 23     ecut=    50.00 Ry     beta= 0.70
     Davidson diagonalization with overlap
     ethr =  2.88E-11,  avg # of iterations =  1.0

     total cpu time spent up to now is       79.8 secs

     total energy              =    -925.57316838 Ry
     Harris-Foulkes estimate   =    -925.57316838 Ry
     estimated scf accuracy    <       0.00000003 Ry

     iteration # 24     ecut=    50.00 Ry     beta= 0.70
     Davidson diagonalization with overlap
     ethr =  2.60E-11,  avg # of iterations =  3.5

     total cpu time spent up to now is       80.3 secs

     total energy              =    -925.57316838 Ry
     Harris-Foulkes estimate   =    -925.57316838 Ry
     estimated scf accuracy    <          1.9E-09 Ry

     iteration # 25     ecut=    50.00 Ry     beta= 0.70
     Davidson diagonalization with overlap
     ethr =  1.70E-12,  avg # of iterations =  4.5

     total cpu time spent up to now is       80.9 secs

     total energy              =    -925.57316838 Ry
     Harris-Foulkes estimate   =    -925.57316838 Ry
     estimated scf accuracy    <          8.1E-10 Ry

     iteration # 26     ecut=    50.00 Ry     beta= 0.70
     Davidson diagonalization with overlap
     ethr =  7.19E-13,  avg # of iterations =  4.0

     total cpu time spent up to now is       81.4 secs

     total energy              =    -925.57316838 Ry
     Harris-Foulkes estimate   =    -925.57316838 Ry
     estimated scf accuracy    <          1.9E-10 Ry

     iteration # 27     ecut=    50.00 Ry     beta= 0.70
     Davidson diagonalization with overlap
     ethr =  1.71E-13,  avg # of iterations =  4.0

     total cpu time spent up to now is       82.0 secs

     total energy              =    -925.57316838 Ry
     Harris-Foulkes estimate   =    -925.57316838 Ry
     estimated scf accuracy    <          1.7E-10 Ry

     iteration # 28     ecut=    50.00 Ry     beta= 0.70
     Davidson diagonalization with overlap
     ethr =  1.48E-13,  avg # of iterations =  1.0

     total cpu time spent up to now is       82.4 secs

     total energy              =    -925.57316838 Ry
     Harris-Foulkes estimate   =    -925.57316838 Ry
     estimated scf accuracy    <          1.3E-10 Ry

     iteration # 29     ecut=    50.00 Ry     beta= 0.70
     Davidson diagonalization with overlap
     ethr =  1.12E-13,  avg # of iterations =  3.0

     total cpu time spent up to now is       82.8 secs

     End of self-consistent calculation

          k = 0.0000 0.0000 0.0000 (  7893 PWs)   bands (ev):

   -59.5828 -59.5771 -59.5640 -59.5587 -33.6276 -33.6172 -33.5935 -33.5868
   -33.5553 -33.5042 -33.4849 -33.4824 -33.4725 -33.4375 -33.4345 -33.4158
   -13.2877 -13.1695 -12.1553 -12.1208 -11.7846 -11.6531 -11.2493 -11.2329
   -11.0827 -11.0544  -0.0220  -0.0045   0.0885   0.0982   0.5388   0.9098
     1.3966   1.7003   1.7593   2.0534   2.0566   2.1174   2.4995   2.6064
     2.6725   2.7816   2.7937   2.8335   2.8986   2.9824   3.0773   3.1034
     3.1801   3.5051   3.5203   3.7583   3.7931   3.7986   3.8239   4.1039

          k = 0.0000 0.2731 0.0000 (  7904 PWs)   bands (ev):

   -59.5802 -59.5801 -59.5639 -59.5593 -33.6296 -33.6196 -33.5976 -33.5911
   -33.5552 -33.5038 -33.4850 -33.4820 -33.4724 -33.4373 -33.4347 -33.4155
   -13.2164 -13.1108 -12.1157 -12.0962 -11.7361 -11.6144 -11.2518 -11.2147
   -11.0423 -11.0034  -0.0701  -0.0592   0.0500   0.0597   0.2795   0.4144
     0.8177   0.9630   1.0179   1.2605   1.7773   1.7814   1.8613   2.4617
     2.5512   2.7472   2.8374   2.9462   3.0726   3.3305   3.4534   3.5383
     3.5611   3.7236   3.7393   3.7804   3.7912   4.1896   4.2094   4.4205

          k = 0.3437 0.0000 0.0000 (  7839 PWs)   bands (ev):

   -59.5701 -59.5683 -59.5631 -59.5597 -33.6209 -33.6127 -33.5925 -33.5898
   -33.5633 -33.5617 -33.5455 -33.5322 -33.4726 -33.4646 -33.4456 -33.4200
   -12.6471 -12.5238 -11.9469 -11.9128 -11.7464 -11.6088 -11.1818 -11.1584
   -11.1273 -11.0766  -0.5779  -0.4921   0.2514   0.4504   0.6679   0.7399
     0.8012   1.2943   1.3149   1.6747   1.7726   1.9598   2.3199   2.3662
     2.4325   2.6125   2.6362   2.6524   2.7596   2.8375   3.0097   3.0320
     3.0755   3.2381   3.6150   3.7403   3.8170   3.9568   4.1385   4.2955

          k = 0.3437 0.2731 0.0000 (  7878 PWs)   bands (ev):

   -59.5734 -59.5686 -59.5634 -59.5612 -33.6230 -33.6151 -33.5963 -33.5932
   -33.5631 -33.5620 -33.5455 -33.5321 -33.4727 -33.4645 -33.4457 -33.4201
   -12.5893 -12.4819 -11.9409 -11.9087 -11.6704 -11.5706 -11.1569 -11.1221
   -11.0526 -11.0213  -0.5772  -0.4927   0.1784   0.3459   0.4726   0.5661
     0.6965   0.7229   0.9180   1.1909   1.2854   1.4142   1.8564   1.9195
     2.0164   2.0692   2.2068   2.3582   2.4983   2.9280   3.2384   3.4511
     3.6407   3.6585   4.0036   4.1508   4.2601   4.3545   4.4568   4.5004

     highest occupied level (ev):     4.5004

!    total energy              =    -925.57316838 Ry
     Harris-Foulkes estimate   =    -925.57316838 Ry
     estimated scf accuracy    <          8.5E-11 Ry

     The total energy is the sum of the following terms:

     one-electron contribution =    -563.34724591 Ry
     hartree contribution      =     324.35036342 Ry
     xc contribution           =    -178.58776863 Ry
     ewald contribution        =    -507.98851725 Ry

     convergence has been achieved in  29 iterations

     Forces acting on atoms (cartesian axes, Ry/au):

     atom    1 type  1   force =     0.00000000   -0.02331060   -0.02157978
     atom    2 type  1   force =     0.00000000    0.02331060    0.02157978
     atom    3 type  1   force =     0.00000000    0.02331060   -0.02157978
     atom    4 type  1   force =     0.00000000   -0.02331060    0.02157978
     atom    5 type  2   force =    -0.00000000    0.01394535    0.00182317
     atom    6 type  2   force =     0.00000000   -0.01394535   -0.00182317
     atom    7 type  2   force =     0.00000000   -0.01394535    0.00182317
     atom    8 type  2   force =    -0.00000000    0.01394535   -0.00182317
     atom    9 type  2   force =    -0.00000000   -0.00688819   -0.00097095
     atom   10 type  2   force =    -0.00000000    0.00688819    0.00097095
     atom   11 type  2   force =     0.00000000    0.00688819   -0.00097095
     atom   12 type  2   force =    -0.00000000   -0.00707741    0.00000000
     atom   13 type  2   force =     0.00000000    0.00707741    0.00000000
     atom   14 type  2   force =     0.00000000   -0.00688819    0.00097095

     Total force =     0.071563     Total SCF correction =     0.000022


     Computing stress (Cartesian axis) and pressure

          total   stress  (Ry/bohr**3)                   (kbar)     P= -167.07
  -0.00097624   0.00000000   0.00000000       -143.61      0.00      0.00
   0.00000000  -0.00118642   0.00000000          0.00   -174.53      0.00
   0.00000000   0.00000000  -0.00124450          0.00      0.00   -183.07


     number of scf cycles    =   4
     number of bfgs steps    =   3

     enthalpy old            =    -925.4936961922 Ry
     enthalpy new            =    -925.5731683784 Ry

     CASE: enthalpy_new < enthalpy_old

     new trust radius        =       0.1443696531 bohr
     new conv_thr            =            2.3E-11 Ry

     new unit-cell volume =   1106.81382 a.u.^3 (   164.01288 Ang^3 )
     density =      3.68287 g/cm^3

CELL_PARAMETERS (alat=  6.76758343)
   0.960362164   0.000000000   0.000000000
   0.000000000   1.194463640   0.000000000
   0.000000000   0.000000000   3.112904101

ATOMIC_POSITIONS (crystal)
V        0.000000000   0.388698663   0.648403909
V        0.500000023   0.611301381   0.851596159
V        0.500000023   0.611301381   0.148403886
V        0.000000000   0.388698663   0.351596136
O        0.500000023   0.502248143   0.679495700
O        0.000000000   0.497751903   0.820504368
O        0.000000000   0.497751903   0.179495677
O        0.500000023   0.502248143   0.320504346
O       -0.000000000   0.021965856   0.357155817
O        0.500000023   0.978034189   0.142844206
O        0.500000023   0.978034189   0.857155839
O        0.500000023   0.485027841  -0.000000000
O        0.000000000   0.514972203   0.500000023
O        0.000000000   0.021965856   0.642844229



     Writing output data file v2o5.save/
     NEW-OLD atomic charge density approx. for the potential

     Check: negative core charge=   -0.000078
     extrapolated charge  106.75169, renormalised to  112.00000

     total cpu time spent up to now is       84.1 secs

     Self-consistent Calculation

     iteration #  1     ecut=    50.00 Ry     beta= 0.70
     Davidson diagonalization with overlap
     ethr =  1.00E-06,  avg # of iterations = 15.8

     total cpu time spent up to now is       86.6 secs

     total energy              =    -901.94021142 Ry
     Harris-Foulkes estimate   =    -948.02397993 Ry
     estimated scf accuracy    <      25.00971952 Ry

     iteration #  2     ecut=    50.00 Ry     beta= 0.70
     Davidson diagonalization with overlap
     ethr =  1.00E-02,  avg # of iterations =  5.0

     total cpu time spent up to now is       87.7 secs

     total energy              =    -923.48970584 Ry
     Harris-Foulkes estimate   =    -959.87336869 Ry
     estimated scf accuracy    <      93.37222387 Ry

     iteration #  3     ecut=    50.00 Ry     beta= 0.70
     Davidson diagonalization with overlap
     ethr =  1.00E-02,  avg # of iterations =  4.5

     total cpu time spent up to now is       88.5 secs

     total energy              =    -927.26074044 Ry
     Harris-Foulkes estimate   =    -931.00834346 Ry
     estimated scf accuracy    <      21.97173670 Ry

     iteration #  4     ecut=    50.00 Ry     beta= 0.70
     Davidson diagonalization with overlap
     ethr =  1.00E-02,  avg # of iterations =  1.0

     total cpu time spent up to now is       88.8 secs

     total energy              =    -924.19154038 Ry
     Harris-Foulkes estimate   =    -927.59700217 Ry
     estimated scf accuracy    <      15.28769260 Ry

     iteration #  5     ecut=    50.00 Ry     beta= 0.70
     Davidson diagonalization with overlap
     ethr =  1.00E-02,  avg # of iterations =  4.5

     total cpu time spent up to now is       89.4 secs

     total energy              =    -924.71923775 Ry
     Harris-Foulkes estimate   =    -925.06363922 Ry
     estimated scf accuracy    <       5.26371155 Ry

     iteration #  6     ecut=    50.00 Ry     beta= 0.70
     Davidson diagonalization with overlap
     ethr =  4.70E-03,  avg # of iterations =  5.2

     total cpu time spent up to now is       90.0 secs

     total energy              =    -925.55515418 Ry
     Harris-Foulkes estimate   =    -925.65515314 Ry
     estimated scf accuracy    <       3.23286837 Ry

     iteration #  7     ecut=    50.00 Ry     beta= 0.70
     Davidson diagonalization with overlap
     ethr =  2.89E-03,  avg # of iterations =  3.8

     total cpu time spent up to now is       90.4 secs

     total energy              =    -925.66467873 Ry
     Harris-Foulkes estimate   =    -925.75239299 Ry
     estimated scf accuracy    <       2.57910353 Ry

     iteration #  8     ecut=    50.00 Ry     beta= 0.70
     Davidson diagonalization with overlap
     ethr =  2.30E-03,  avg # of iterations =  1.0

     total cpu time spent up to now is       90.8 secs

     total energy              =    -925.32946210 Ry
     Harris-Foulkes estimate   =    -925.70712572 Ry
     estimated scf accuracy    <       2.24526499 Ry

     iteration #  9     ecut=    50.00 Ry     beta= 0.70
     Davidson diagonalization with overlap
     ethr =  2.00E-03,  avg # of iterations =  3.8

     total cpu time spent up to now is       91.3 secs

     total energy              =    -925.59116782 Ry
     Harris-Foulkes estimate   =    -925.55338812 Ry
     estimated scf accuracy    <       0.44982945 Ry

     iteration # 10     ecut=    50.00 Ry     beta= 0.70
     Davidson diagonalization with overlap
     ethr =  4.02E-04,  avg # of iterations =  4.0

     negative rho (up, down):  2.407E-02 0.000E+00

     total cpu time spent up to now is       91.9 secs

     total energy              =    -925.50762930 Ry
     Harris-Foulkes estimate   =    -925.65964711 Ry
     estimated scf accuracy    <       0.30529463 Ry

     iteration # 11     ecut=    50.00 Ry     beta= 0.70
     Davidson diagonalization with overlap
     ethr =  2.73E-04,  avg # of iterations =  5.0

     negative rho (up, down):  2.332E-02 0.000E+00

     total cpu time spent up to now is       93.0 secs

     total energy              =    -925.77770248 Ry
     Harris-Foulkes estimate   =    -925.81521907 Ry
[...]
        12           O   tau(  12) = (   0.4769262   0.5874785   0.0000000  )
        13           O   tau(  13) = (   0.0000000   0.5762459   1.5421767  )
        14           O   tau(  14) = (   0.0000000  -0.0195438   1.9871658  )

     number of k points=     4
                       cart. coord. in units 2pi/alat
        k(    1) = (   0.0000000   0.0000000   0.0000000), wk =   0.2222222
        k(    2) = (   0.0000000   0.2864367   0.0000000), wk =   0.4444444
        k(    3) = (   0.3494601   0.0000000   0.0000000), wk =   0.4444444
        k(    4) = (   0.3494601   0.2864367   0.0000000), wk =   0.8888889

     Dense  grid:    50675 G-vectors     FFT dimensions: (  30,  36,  96)

     Estimated max dynamical RAM per process >       8.98 MB

     Estimated total dynamical RAM >     287.24 MB

     Check: negative core charge=   -0.000184

     Initial potential from superposition of free atoms

     starting charge  111.99579, renormalised to  112.00000
     Starting wfcs are   80 randomized atomic wfcs

     total cpu time spent up to now is      482.1 secs

     Self-consistent Calculation

     iteration #  1     ecut=    50.00 Ry     beta= 0.70
     Davidson diagonalization with overlap
     ethr =  1.00E-06,  avg # of iterations =  7.5

     total cpu time spent up to now is      483.1 secs

     total energy              =    -920.45429296 Ry
     Harris-Foulkes estimate   =    -926.75933627 Ry
     estimated scf accuracy    <       7.97133137 Ry

     iteration #  2     ecut=    50.00 Ry     beta= 0.70
     Davidson diagonalization with overlap
     ethr =  7.12E-03,  avg # of iterations =  6.8

     total cpu time spent up to now is      483.7 secs

     total energy              =    -910.92096969 Ry
     Harris-Foulkes estimate   =    -939.94145047 Ry
     estimated scf accuracy    <     124.54579855 Ry

     iteration #  3     ecut=    50.00 Ry     beta= 0.70
     Davidson diagonalization with overlap
     ethr =  7.12E-03,  avg # of iterations =  5.5

     total cpu time spent up to now is      484.4 secs

     total energy              =    -924.91558081 Ry
     Harris-Foulkes estimate   =    -925.67807192 Ry
     estimated scf accuracy    <       2.63665106 Ry

     iteration #  4     ecut=    50.00 Ry     beta= 0.70
     Davidson diagonalization with overlap
     ethr =  2.35E-03,  avg # of iterations =  3.2

     total cpu time spent up to now is      484.7 secs

     total energy              =    -925.02390225 Ry
     Harris-Foulkes estimate   =    -925.17609275 Ry
     estimated scf accuracy    <       0.98120524 Ry

     iteration #  5     ecut=    50.00 Ry     beta= 0.70
     Davidson diagonalization with overlap
     ethr =  8.76E-04,  avg # of iterations =  3.8

     total cpu time spent up to now is      485.0 secs

     total energy              =    -924.94305811 Ry
     Harris-Foulkes estimate   =    -925.08527936 Ry
     estimated scf accuracy    <       0.51973748 Ry

     iteration #  6     ecut=    50.00 Ry     beta= 0.70
     Davidson diagonalization with overlap
     ethr =  4.64E-04,  avg # of iterations =  4.0

     total cpu time spent up to now is      485.4 secs

     total energy              =    -925.10359588 Ry
     Harris-Foulkes estimate   =    -925.11004615 Ry
     estimated scf accuracy    <       0.14175411 Ry

     iteration #  7     ecut=    50.00 Ry     beta= 0.70
     Davidson diagonalization with overlap
     ethr =  1.27E-04,  avg # of iterations =  2.5

     total cpu time spent up to now is      485.7 secs

     total energy              =    -925.08386125 Ry
     Harris-Foulkes estimate   =    -925.10720372 Ry
     estimated scf accuracy    <       0.12686281 Ry

     iteration #  8     ecut=    50.00 Ry     beta= 0.70
     Davidson diagonalization with overlap
     ethr =  1.13E-04,  avg # of iterations =  3.2

     total cpu time spent up to now is      485.9 secs

     total energy              =    -925.08106281 Ry
     Harris-Foulkes estimate   =    -925.08950475 Ry
     estimated scf accuracy    <       0.04793932 Ry

     iteration #  9     ecut=    50.00 Ry     beta= 0.70
     Davidson diagonalization with overlap
     ethr =  4.28E-05,  avg # of iterations =  4.0

     total cpu time spent up to now is      486.3 secs

     total energy              =    -925.09097852 Ry
     Harris-Foulkes estimate   =    -925.09179104 Ry
     estimated scf accuracy    <       0.00223292 Ry

     iteration # 10     ecut=    50.00 Ry     beta= 0.70
     Davidson diagonalization with overlap
     ethr =  1.99E-06,  avg # of iterations =  4.8

     total cpu time spent up to now is      486.7 secs

     total energy              =    -925.09136533 Ry
     Harris-Foulkes estimate   =    -925.09149598 Ry
     estimated scf accuracy    <       0.00040794 Ry

     iteration # 11     ecut=    50.00 Ry     beta= 0.70
     Davidson diagonalization with overlap
     ethr =  3.64E-07,  avg # of iterations =  4.5

     total cpu time spent up to now is      487.3 secs

     total energy              =    -925.09153198 Ry
     Harris-Foulkes estimate   =    -925.09159970 Ry
     estimated scf accuracy    <       0.00034124 Ry

     iteration # 12     ecut=    50.00 Ry     beta= 0.70
     Davidson diagonalization with overlap
     ethr =  3.05E-07,  avg # of iterations =  2.0

     total cpu time spent up to now is      487.5 secs

     total energy              =    -925.09152458 Ry
     Harris-Foulkes estimate   =    -925.09154445 Ry
     estimated scf accuracy    <       0.00016018 Ry

     iteration # 13     ecut=    50.00 Ry     beta= 0.70
     Davidson diagonalization with overlap
     ethr =  1.43E-07,  avg # of iterations =  4.0

     total cpu time spent up to now is      487.9 secs

     total energy              =    -925.09154794 Ry
     Harris-Foulkes estimate   =    -925.09155095 Ry
     estimated scf accuracy    <       0.00001881 Ry

     iteration # 14     ecut=    50.00 Ry     beta= 0.70
     Davidson diagonalization with overlap
     ethr =  1.68E-08,  avg # of iterations =  4.0

     total cpu time spent up to now is      488.2 secs

     total energy              =    -925.09154968 Ry
     Harris-Foulkes estimate   =    -925.09155121 Ry
     estimated scf accuracy    <       0.00000776 Ry

     iteration # 15     ecut=    50.00 Ry     beta= 0.70
     Davidson diagonalization with overlap
     ethr =  6.93E-09,  avg # of iterations =  4.0

     total cpu time spent up to now is      488.6 secs

     total energy              =    -925.09155042 Ry
     Harris-Foulkes estimate   =    -925.09155093 Ry
     estimated scf accuracy    <       0.00000503 Ry

     iteration # 16     ecut=    50.00 Ry     beta= 0.70
     Davidson diagonalization with overlap
     ethr =  4.49E-09,  avg # of iterations =  1.5

     total cpu time spent up to now is      488.8 secs

     total energy              =    -925.09155000 Ry
     Harris-Foulkes estimate   =    -925.09155050 Ry
     estimated scf accuracy    <       0.00000378 Ry

     iteration # 17     ecut=    50.00 Ry     beta= 0.70
     Davidson diagonalization with overlap
     ethr =  3.38E-09,  avg # of iterations =  2.8

     total cpu time spent up to now is      489.1 secs

     total energy              =    -925.09154991 Ry
     Harris-Foulkes estimate   =    -925.09155015 Ry
     estimated scf accuracy    <       0.00000178 Ry

     iteration # 18     ecut=    50.00 Ry     beta= 0.70
     Davidson diagonalization with overlap
     ethr =  1.59E-09,  avg # of iterations =  4.0

     total cpu time spent up to now is      489.5 secs

     total energy              =    -925.09155023 Ry
     Harris-Foulkes estimate   =    -925.09155033 Ry
     estimated scf accuracy    <       0.00000044 Ry

     iteration # 19     ecut=    50.00 Ry     beta= 0.70
     Davidson diagonalization with overlap
     ethr =  3.94E-10,  avg # of iterations =  3.5

     total cpu time spent up to now is      489.8 secs

     total energy              =    -925.09155023 Ry
     Harris-Foulkes estimate   =    -925.09155026 Ry
     estimated scf accuracy    <       0.00000013 Ry

     iteration # 20     ecut=    50.00 Ry     beta= 0.70
     Davidson diagonalization with overlap
     ethr =  1.17E-10,  avg # of iterations =  4.0

     total cpu time spent up to now is      490.2 secs

     total energy              =    -925.09155026 Ry
     Harris-Foulkes estimate   =    -925.09155027 Ry
     estimated scf accuracy    <       0.00000008 Ry

     iteration # 21     ecut=    50.00 Ry     beta= 0.70
     Davidson diagonalization with overlap
     ethr =  6.77E-11,  avg # of iterations =  1.0

     total cpu time spent up to now is      490.4 secs

     total energy              =    -925.09155025 Ry
     Harris-Foulkes estimate   =    -925.09155026 Ry
     estimated scf accuracy    <       0.00000005 Ry

     iteration # 22     ecut=    50.00 Ry     beta= 0.70
     Davidson diagonalization with overlap
     ethr =  4.68E-11,  avg # of iterations =  4.0

     total cpu time spent up to now is      490.8 secs

     total energy              =    -925.09155026 Ry
     Harris-Foulkes estimate   =    -925.09155026 Ry
     estimated scf accuracy    <       0.00000001 Ry

     iteration # 23     ecut=    50.00 Ry     beta= 0.70
     Davidson diagonalization with overlap
     ethr =  1.17E-11,  avg # of iterations =  3.8

     total cpu time spent up to now is      491.1 secs

     total energy              =    -925.09155026 Ry
     Harris-Foulkes estimate   =    -925.09155026 Ry
     estimated scf accuracy    <          2.0E-09 Ry

     iteration # 24     ecut=    50.00 Ry     beta= 0.70
     Davidson diagonalization with overlap
     ethr =  1.79E-12,  avg # of iterations =  4.2

     total cpu time spent up to now is      491.6 secs

     total energy              =    -925.09155026 Ry
     Harris-Foulkes estimate   =    -925.09155026 Ry
     estimated scf accuracy    <          3.0E-09 Ry

     iteration # 25     ecut=    50.00 Ry     beta= 0.70
     Davidson diagonalization with overlap
     ethr =  1.79E-12,  avg # of iterations =  1.0

     total cpu time spent up to now is      491.8 secs

     total energy              =    -925.09155026 Ry
     Harris-Foulkes estimate   =    -925.09155026 Ry
     estimated scf accuracy    <          1.8E-09 Ry

     iteration # 26     ecut=    50.00 Ry     beta= 0.70
     Davidson diagonalization with overlap
     ethr =  1.57E-12,  avg # of iterations =  1.5

     total cpu time spent up to now is      492.0 secs

     total energy              =    -925.09155026 Ry
     Harris-Foulkes estimate   =    -925.09155026 Ry
     estimated scf accuracy    <          1.1E-09 Ry

     iteration # 27     ecut=    50.00 Ry     beta= 0.70
     Davidson diagonalization with overlap
     ethr =  9.95E-13,  avg # of iterations =  4.0

     total cpu time spent up to now is      492.4 secs

     total energy              =    -925.09155026 Ry
     Harris-Foulkes estimate   =    -925.09155026 Ry
     estimated scf accuracy    <          1.0E-10 Ry

     iteration # 28     ecut=    50.00 Ry     beta= 0.70
     Davidson diagonalization with overlap
     ethr =  1.00E-13,  avg # of iterations =  4.8

     total cpu time spent up to now is      492.8 secs

     total energy              =    -925.09155026 Ry
     Harris-Foulkes estimate   =    -925.09155026 Ry
     estimated scf accuracy    <          2.7E-11 Ry

     iteration # 29     ecut=    50.00 Ry     beta= 0.70
     Davidson diagonalization with overlap
     ethr =  1.00E-13,  avg # of iterations =  3.2

     total cpu time spent up to now is      493.0 secs

     total energy              =    -925.09155026 Ry
     Harris-Foulkes estimate   =    -925.09155026 Ry
     estimated scf accuracy    <          4.1E-11 Ry

     iteration # 30     ecut=    50.00 Ry     beta= 0.70
     Davidson diagonalization with overlap
     ethr =  1.00E-13,  avg # of iterations =  1.0

     total cpu time spent up to now is      493.2 secs

     total energy              =    -925.09155026 Ry
     Harris-Foulkes estimate   =    -925.09155026 Ry
     estimated scf accuracy    <          2.7E-11 Ry

     iteration # 31     ecut=    50.00 Ry     beta= 0.70
     Davidson diagonalization with overlap
     ethr =  1.00E-13,  avg # of iterations =  2.0

     total cpu time spent up to now is      493.5 secs

     total energy              =    -925.09155026 Ry
     Harris-Foulkes estimate   =    -925.09155026 Ry
     estimated scf accuracy    <          9.7E-12 Ry

     iteration # 32     ecut=    50.00 Ry     beta= 0.70
     Davidson diagonalization with overlap
     ethr =  1.00E-13,  avg # of iterations =  1.0

     total cpu time spent up to now is      493.7 secs

     total energy              =    -925.09155026 Ry
     Harris-Foulkes estimate   =    -925.09155026 Ry
     estimated scf accuracy    <          4.7E-12 Ry

     iteration # 33     ecut=    50.00 Ry     beta= 0.70
     Davidson diagonalization with overlap
     ethr =  1.00E-13,  avg # of iterations =  1.0

     total cpu time spent up to now is      493.9 secs

     End of self-consistent calculation

          k = 0.0000 0.0000 0.0000 (  6329 PWs)   bands (ev):

   -58.5161 -58.5149 -58.4949 -58.4911 -32.6198 -32.6053 -32.5868 -32.5718
   -32.5684 -32.5066 -32.4769 -32.4589 -32.4557 -32.4151 -32.4107 -32.4081
   -12.3067 -12.1506 -11.1238 -11.0238 -10.7649 -10.6384 -10.1615 -10.1411
    -9.9941  -9.9476   1.1157   1.1169   1.1877   1.2558   1.6130   1.8626
     2.3574   2.6759   2.8938   3.0714   3.1953   3.5006   3.7650   3.7713
     3.8307   3.8773   3.9445   3.9814   4.1035   4.1881   4.2180   4.2408
     4.6178   4.6190   4.6908   4.8938   4.9681   5.0633   5.0654   5.3741

          k = 0.0000 0.2864 0.0000 (  6362 PWs)   bands (ev):

   -58.5191 -58.5131 -58.5017 -58.4973 -32.6246 -32.6106 -32.5951 -32.5812
   -32.5690 -32.5055 -32.4777 -32.4589 -32.4560 -32.4154 -32.4106 -32.4083
   -12.1662 -12.0315 -11.0192 -10.9672 -10.7328 -10.6068 -10.1753 -10.1353
    -9.9049  -9.8654   0.9786   0.9977   1.0933   1.1096   1.2094   1.2686
     1.6676   1.8244   1.9044   2.2267   2.6126   2.7474   2.8318   3.6699
     3.7506   3.7878   3.9774   4.0501   4.2477   4.6950   4.7187   4.7401
     4.8184   5.1710   5.1890   5.1937   5.1939   5.3459   5.6202   5.7590

          k = 0.3495 0.0000 0.0000 (  6334 PWs)   bands (ev):

   -58.5125 -58.5024 -58.5000 -58.4994 -32.6103 -32.5993 -32.5801 -32.5714
   -32.5693 -32.5596 -32.5328 -32.5245 -32.4610 -32.4609 -32.4363 -32.4169
   -11.6607 -11.4938 -10.8730 -10.8198 -10.7880 -10.5972 -10.1091 -10.0842
   -10.0725  -9.9952   0.6714   0.7724   1.2111   1.5797   1.7210   1.8421
     2.0234   2.3954   2.4362   2.9085   3.0742   3.1289   3.5157   3.5584
     3.7023   3.7081   3.7623   3.8325   3.9894   4.1268   4.3837   4.4145
     4.4257   4.4951   4.5806   4.6551   4.8279   5.0561   5.2675   5.5994

          k = 0.3495 0.2864 0.0000 (  6330 PWs)   bands (ev):

   -58.5129 -58.5062 -58.4950 -58.4947 -32.6134 -32.6035 -32.5875 -32.5794
   -32.5701 -32.5591 -32.5318 -32.5240 -32.4610 -32.4604 -32.4362 -32.4170
   -11.5484 -11.4117 -10.8529 -10.8130 -10.6902 -10.5612 -10.0590 -10.0240
    -9.9278  -9.8995   0.6190   0.7263   1.0784   1.3582   1.4308   1.5283
     1.7387   1.7729   1.8776   2.0618   2.1866   2.4433   2.8649   2.9786
     3.2316   3.3260   3.5084   3.5413   3.8312   4.2411   4.5243   4.7212
     4.9015   5.0374   5.2557   5.3323   5.4804   5.5660   5.7083   5.8394

     highest occupied level (ev):     5.8394

!    total energy              =    -925.09155026 Ry
     Harris-Foulkes estimate   =    -925.09155026 Ry
     estimated scf accuracy    <          8.8E-13 Ry

     The total energy is the sum of the following terms:

     one-electron contribution =    -506.29438579 Ry
     hartree contribution      =     300.44824062 Ry
     xc contribution           =    -178.72527847 Ry
     ewald contribution        =    -540.52012662 Ry

     convergence has been achieved in  33 iterations

     Forces acting on atoms (cartesian axes, Ry/au):

     atom    1 type  1   force =     0.00000000   -0.00362243   -0.01369149
     atom    2 type  1   force =     0.00000000    0.00362243    0.01369149
     atom    3 type  1   force =     0.00000000    0.00362243   -0.01369149
     atom    4 type  1   force =    -0.00000000   -0.00362243    0.01369149
     atom    5 type  2   force =    -0.00000000   -0.00133091   -0.00181193
     atom    6 type  2   force =     0.00000000    0.00133091    0.00181193
     atom    7 type  2   force =     0.00000000    0.00133091   -0.00181193
     atom    8 type  2   force =     0.00000000   -0.00133091    0.00181193
     atom    9 type  2   force =     0.00000000    0.01064598    0.00071690
     atom   10 type  2   force =    -0.00000000   -0.01064598   -0.00071690
     atom   11 type  2   force =     0.00000000   -0.01064598    0.00071690
     atom   12 type  2   force =     0.00000000    0.00907035    0.00000000
     atom   13 type  2   force =     0.00000000   -0.00907035    0.00000000
     atom   14 type  2   force =     0.00000000    0.01064598   -0.00071690

     Total force =     0.037980     Total SCF correction =     0.000003


     Computing stress (Cartesian axis) and pressure

          total   stress  (Ry/bohr**3)                   (kbar)     P= -340.25
  -0.00210938   0.00000000   0.00000000       -310.30      0.00      0.00
   0.00000000  -0.00269980   0.00000000          0.00   -397.15      0.00
   0.00000000   0.00000000  -0.00212978          0.00      0.00   -313.30


     Writing output data file v2o5.save/

     init_run     :      0.68s CPU      0.69s WALL (       2 calls)
     electrons    :    451.23s CPU    459.72s WALL (      29 calls)
     update_pot   :      9.34s CPU      9.38s WALL (      27 calls)
     forces       :      8.61s CPU      8.67s WALL (      29 calls)
     stress       :     14.79s CPU     14.84s WALL (      29 calls)

     Called by init_run:
     wfcinit      :      0.29s CPU      0.30s WALL (       2 calls)
     potinit      :      0.14s CPU      0.14s WALL (       2 calls)
     hinit0       :      0.22s CPU      0.23s WALL (       2 calls)

     Called by electrons:
     c_bands      :    414.02s CPU    421.70s WALL (     774 calls)
     sum_band     :     18.17s CPU     18.59s WALL (     774 calls)
     v_of_rho     :     18.04s CPU     18.18s WALL (     797 calls)
     mix_rho      :      1.32s CPU      1.34s WALL (     774 calls)

     Called by c_bands:
     init_us_2    :      2.77s CPU      2.83s WALL (    6432 calls)
     cegterg      :    403.69s CPU    411.03s WALL (    3096 calls)

     Called by sum_band:

     Called by *egterg:
     h_psi        :    189.72s CPU    193.51s WALL (   13470 calls)
     g_psi        :      0.66s CPU      0.66s WALL (   10366 calls)
     cdiaghg      :    108.08s CPU    110.83s WALL (   13330 calls)

     Called by h_psi:
     h_psi:pot    :    189.12s CPU    192.90s WALL (   13470 calls)
     h_psi:calbec :     57.36s CPU     59.29s WALL (   13470 calls)
     vloc_psi     :     89.05s CPU     90.78s WALL (   13470 calls)
     add_vuspsi   :     42.66s CPU     42.78s WALL (   13470 calls)

     General routines
     calbec       :     61.20s CPU     63.21s WALL (   14050 calls)
     fft          :      9.12s CPU      9.19s WALL (   52725 calls)
     ffts         :      0.13s CPU      0.13s WALL (     774 calls)
     fftw         :     96.24s CPU     98.16s WALL ( 1127728 calls)

     Parallel routines
     fft_scatt_xy :      8.00s CPU      8.14s WALL ( 1181227 calls)
     fft_scatt_yz :     68.42s CPU     69.81s WALL ( 1181227 calls)

     PWSCF        :   8m 5.59s CPU   8m14.46s WALL


   This run was terminated on:   0:57: 6  19May2024            

=------------------------------------------------------------------------------=
   JOB DONE.
=------------------------------------------------------------------------------=
