
     Program PWSCF v.6.4.1 starts on 27Oct2024 at 11:57:26 

     This program is part of the open-source Quantum ESPRESSO suite
     for quantum simulation of materials; please cite
         "P. Giannozzi et al., J. Phys.:Condens. Matter 21 395502 (2009);
         "P. Giannozzi et al., J. Phys.:Condens. Matter 29 465901 (2017);
          URL http://www.quantum-espresso.org", 
     in publications or presentations arising from this work. More details at
     http://www.quantum-espresso.org/quote

     Parallel version (MPI), running on    16 processors

     MPI processes distributed on     1 nodes
     R & G space division:  proc/nbgrp/npool/nimage =      16
     Reading input from v2o5.vc-rlx.in

     Current dimensions of program PWSCF are:
     Max number of different atomic species (ntypx) = 10
     Max number of k-points (npk) =  40000
     Max angular momentum in pseudopotentials (lmaxx) =  3

     Subspace diagonalization in iterative solution of the eigenvalue problem:
     one sub-group per band group will be used
     ELPA distributed-memory algorithm (size of sub-group:  2*  2 procs)


     Parallelization info
     --------------------
     sticks:   dense  smooth     PW     G-vecs:    dense   smooth      PW
     Min         136     136     36                13160    13160    1828
     Max         137     137     38                13169    13169    1835
     Sum        2185    2185    585               210637   210637   29307



     bravais-lattice index     =            8
     lattice parameter (alat)  =       6.7498  a.u.
     unit-cell volume          =    1351.1084 (a.u.)^3
     number of atoms/cell      =           14
     number of atomic types    =            2
     number of electrons       =       112.00
     number of Kohn-Sham states=           56
     kinetic-energy cutoff     =     110.0000  Ry
     charge density cutoff     =     440.0000  Ry
     convergence threshold     =      1.0E-10
     mixing beta               =       0.7000
     number of iterations used =            8  plain     mixing
     Exchange-correlation      = PBE ( 1  4  3  4 0 0)
     nstep                     =          500


     celldm(1)=   6.749813  celldm(2)=   1.367024  celldm(3)=   3.213949
     celldm(4)=   0.000000  celldm(5)=   0.000000  celldm(6)=   0.000000

     crystal axes: (cart. coord. in units of alat)
               a(1) = (   1.000000   0.000000   0.000000 )  
               a(2) = (   0.000000   1.367024   0.000000 )  
               a(3) = (   0.000000   0.000000   3.213949 )  

     reciprocal axes: (cart. coord. in units 2 pi/alat)
               b(1) = (  1.000000  0.000000  0.000000 )  
               b(2) = (  0.000000  0.731516  0.000000 )  
               b(3) = (  0.000000  0.000000  0.311144 )  


     PseudoPot. # 1 for V  read from file:
     /home/mpicuntureo/pseudos/v.nc.upf
     MD5 check sum: 40fb93c06b4f9d8c28c5ccd071294a04
     Pseudo is Norm-conserving + core correction, Zval = 13.0
     Generated using ONCVPSP code by D. R. Hamann
     Using radial grid of 1536 points,  6 beta functions with: 
                l(1) =   0
                l(2) =   0
                l(3) =   1
                l(4) =   1
                l(5) =   2
                l(6) =   2

     PseudoPot. # 2 for O  read from file:
     /home/mpicuntureo/pseudos/o.nc.upf
     MD5 check sum: 3e3f909f7470e8921608ab6b1f57bbae
     Pseudo is Norm-conserving + core correction, Zval =  6.0
     Generated using ONCVPSP code by D. R. Hamann
     Using radial grid of  936 points,  5 beta functions with: 
                l(1) =   0
                l(2) =   0
                l(3) =   1
                l(4) =   1
                l(5) =   2

     atomic species   valence    mass     pseudopotential
        V             13.00    50.94150     V ( 1.00)
        O              6.00    15.99940     O ( 1.00)

      8 Sym. Ops., with inversion, found ( 4 have fractional translation)



   Cartesian axes

     site n.     atom                  positions (alat units)
         1           V   tau(   1) = (   0.0000000   0.5342521   2.0850183  )
         2           V   tau(   2) = (   0.5000000   0.8327717   2.7359052  )
         3           V   tau(   3) = (   0.5000000   0.8327717   0.4780438  )
         4           V   tau(   4) = (   0.0000000   0.5342521   1.1289307  )
         5           O   tau(   5) = (   0.5000000   0.6694361   2.1905017  )
         6           O   tau(   6) = (   0.0000000   0.6975877   2.6304218  )
         7           O   tau(   7) = (   0.0000000   0.6975877   0.5835272  )
         8           O   tau(   8) = (   0.5000000   0.6694361   1.0234473  )
         9           O   tau(   9) = (   0.0000000   0.0924598   1.1437779  )
        10           O   tau(  10) = (   0.5000000   1.2745640   0.4631966  )
        11           O   tau(  11) = (   0.5000000   1.2745640   2.7507524  )
        12           O   tau(  12) = (   0.5000000   0.6849446   0.0000000  )
        13           O   tau(  13) = (   0.0000000   0.6820792   1.6069745  )
        14           O   tau(  14) = (   0.0000000   0.0924598   2.0701711  )

     number of k points=     4
                       cart. coord. in units 2pi/alat
        k(    1) = (   0.0000000   0.0000000   0.0000000), wk =   0.2222222
        k(    2) = (   0.0000000   0.2438387   0.0000000), wk =   0.4444444
        k(    3) = (   0.3333333   0.0000000   0.0000000), wk =   0.4444444
        k(    4) = (   0.3333333   0.2438387   0.0000000), wk =   0.8888889

     Dense  grid:   210637 G-vectors     FFT dimensions: (  48,  64, 150)

     Estimated max dynamical RAM per process >      39.31 MB

     Estimated total dynamical RAM >     628.90 MB

     Initial potential from superposition of free atoms

     starting charge  111.99579, renormalised to  112.00000
     Starting wfcs are   80 randomized atomic wfcs

     total cpu time spent up to now is        2.0 secs

     Self-consistent Calculation

     iteration #  1     ecut=   110.00 Ry     beta= 0.70
     Davidson diagonalization with overlap
     ethr =  1.00E-02,  avg # of iterations =  2.0

     total cpu time spent up to now is        3.3 secs

     total energy              =    -917.28996677 Ry
     Harris-Foulkes estimate   =    -923.49492973 Ry
     estimated scf accuracy    <       7.78668534 Ry

     iteration #  2     ecut=   110.00 Ry     beta= 0.70
     Davidson diagonalization with overlap
     ethr =  6.95E-03,  avg # of iterations =  6.2

     total cpu time spent up to now is        6.3 secs

     total energy              =    -907.75207753 Ry
     Harris-Foulkes estimate   =    -938.89305541 Ry
     estimated scf accuracy    <     141.73972138 Ry

     iteration #  3     ecut=   110.00 Ry     beta= 0.70
     Davidson diagonalization with overlap
     ethr =  6.95E-03,  avg # of iterations =  5.2

     total cpu time spent up to now is        9.0 secs

     total energy              =    -921.70121448 Ry
     Harris-Foulkes estimate   =    -922.62990220 Ry
     estimated scf accuracy    <       3.00430359 Ry

     iteration #  4     ecut=   110.00 Ry     beta= 0.70
     Davidson diagonalization with overlap
     ethr =  2.68E-03,  avg # of iterations =  4.0

     total cpu time spent up to now is       10.5 secs

     total energy              =    -921.94745069 Ry
     Harris-Foulkes estimate   =    -922.08830748 Ry
     estimated scf accuracy    <       0.84922797 Ry

     iteration #  5     ecut=   110.00 Ry     beta= 0.70
     Davidson diagonalization with overlap
     ethr =  7.58E-04,  avg # of iterations =  3.8

     total cpu time spent up to now is       11.8 secs

     total energy              =    -921.88276184 Ry
     Harris-Foulkes estimate   =    -922.01107143 Ry
     estimated scf accuracy    <       0.45889647 Ry

     iteration #  6     ecut=   110.00 Ry     beta= 0.70
     Davidson diagonalization with overlap
     ethr =  4.10E-04,  avg # of iterations =  4.2

     total cpu time spent up to now is       13.7 secs

     total energy              =    -922.01317666 Ry
     Harris-Foulkes estimate   =    -922.02281407 Ry
     estimated scf accuracy    <       0.16497459 Ry

     iteration #  7     ecut=   110.00 Ry     beta= 0.70
     Davidson diagonalization with overlap
     ethr =  1.47E-04,  avg # of iterations =  3.0

     total cpu time spent up to now is       14.8 secs

     total energy              =    -921.98957556 Ry
     Harris-Foulkes estimate   =    -922.01650084 Ry
     estimated scf accuracy    <       0.14648379 Ry

     iteration #  8     ecut=   110.00 Ry     beta= 0.70
     Davidson diagonalization with overlap
     ethr =  1.31E-04,  avg # of iterations =  3.2

     total cpu time spent up to now is       16.1 secs

     total energy              =    -921.99098042 Ry
     Harris-Foulkes estimate   =    -921.99865391 Ry
     estimated scf accuracy    <       0.03611546 Ry

     iteration #  9     ecut=   110.00 Ry     beta= 0.70
     Davidson diagonalization with overlap
     ethr =  3.22E-05,  avg # of iterations =  4.5

     total cpu time spent up to now is       18.0 secs

     total energy              =    -922.00231764 Ry
     Harris-Foulkes estimate   =    -922.00440972 Ry
     estimated scf accuracy    <       0.01163539 Ry

     iteration # 10     ecut=   110.00 Ry     beta= 0.70
     Davidson diagonalization with overlap
     ethr =  1.04E-05,  avg # of iterations =  2.0

     total cpu time spent up to now is       19.1 secs

     total energy              =    -922.00116449 Ry
     Harris-Foulkes estimate   =    -922.00265657 Ry
     estimated scf accuracy    <       0.00616243 Ry

     iteration # 11     ecut=   110.00 Ry     beta= 0.70
     Davidson diagonalization with overlap
     ethr =  5.50E-06,  avg # of iterations =  4.0

     total cpu time spent up to now is       21.0 secs

     total energy              =    -922.00262287 Ry
     Harris-Foulkes estimate   =    -922.00322900 Ry
     estimated scf accuracy    <       0.00288408 Ry

     iteration # 12     ecut=   110.00 Ry     beta= 0.70
     Davidson diagonalization with overlap
     ethr =  2.58E-06,  avg # of iterations =  2.0

     total cpu time spent up to now is       22.1 secs

     total energy              =    -922.00255910 Ry
     Harris-Foulkes estimate   =    -922.00273160 Ry
     estimated scf accuracy    <       0.00115654 Ry

     iteration # 13     ecut=   110.00 Ry     beta= 0.70
     Davidson diagonalization with overlap
     ethr =  1.03E-06,  avg # of iterations =  4.2

     total cpu time spent up to now is       23.8 secs

     total energy              =    -922.00287080 Ry
     Harris-Foulkes estimate   =    -922.00290976 Ry
     estimated scf accuracy    <       0.00022704 Ry

     iteration # 14     ecut=   110.00 Ry     beta= 0.70
     Davidson diagonalization with overlap
     ethr =  2.03E-07,  avg # of iterations =  2.0

     total cpu time spent up to now is       25.0 secs

     total energy              =    -922.00285569 Ry
     Harris-Foulkes estimate   =    -922.00287762 Ry
     estimated scf accuracy    <       0.00013278 Ry

     iteration # 15     ecut=   110.00 Ry     beta= 0.70
     Davidson diagonalization with overlap
     ethr =  1.19E-07,  avg # of iterations =  4.0

     total cpu time spent up to now is       26.5 secs

     total energy              =    -922.00287787 Ry
     Harris-Foulkes estimate   =    -922.00287824 Ry
     estimated scf accuracy    <       0.00000077 Ry

     iteration # 16     ecut=   110.00 Ry     beta= 0.70
     Davidson diagonalization with overlap
     ethr =  6.84E-10,  avg # of iterations =  5.5

     total cpu time spent up to now is       30.3 secs

     total energy              =    -922.00288074 Ry
     Harris-Foulkes estimate   =    -922.00288074 Ry
     estimated scf accuracy    <       0.00000857 Ry

     iteration # 17     ecut=   110.00 Ry     beta= 0.70
     Davidson diagonalization with overlap
     ethr =  6.84E-10,  avg # of iterations =  1.0

     total cpu time spent up to now is       31.7 secs

     total energy              =    -922.00287981 Ry
     Harris-Foulkes estimate   =    -922.00288075 Ry
     estimated scf accuracy    <       0.00000860 Ry

     iteration # 18     ecut=   110.00 Ry     beta= 0.70
     Davidson diagonalization with overlap
     ethr =  6.84E-10,  avg # of iterations =  4.0

     total cpu time spent up to now is       33.9 secs

     total energy              =    -922.00287989 Ry
     Harris-Foulkes estimate   =    -922.00288001 Ry
     estimated scf accuracy    <       0.00000254 Ry

     iteration # 19     ecut=   110.00 Ry     beta= 0.70
     Davidson diagonalization with overlap
     ethr =  6.84E-10,  avg # of iterations =  1.0

     total cpu time spent up to now is       35.2 secs

     total energy              =    -922.00287937 Ry
     Harris-Foulkes estimate   =    -922.00287990 Ry
     estimated scf accuracy    <       0.00000220 Ry

     iteration # 20     ecut=   110.00 Ry     beta= 0.70
     Davidson diagonalization with overlap
     ethr =  6.84E-10,  avg # of iterations =  4.2

     total cpu time spent up to now is       37.8 secs

     total energy              =    -922.00287970 Ry
     Harris-Foulkes estimate   =    -922.00287972 Ry
     estimated scf accuracy    <       0.00000009 Ry

     iteration # 21     ecut=   110.00 Ry     beta= 0.70
     Davidson diagonalization with overlap
     ethr =  8.02E-11,  avg # of iterations =  2.5

     total cpu time spent up to now is       39.3 secs

     total energy              =    -922.00287969 Ry
     Harris-Foulkes estimate   =    -922.00287970 Ry
     estimated scf accuracy    <       0.00000003 Ry

     iteration # 22     ecut=   110.00 Ry     beta= 0.70
     Davidson diagonalization with overlap
     ethr =  2.26E-11,  avg # of iterations =  5.0

     total cpu time spent up to now is       42.2 secs

     total energy              =    -922.00287971 Ry
     Harris-Foulkes estimate   =    -922.00287971 Ry
     estimated scf accuracy    <       0.00000006 Ry

     iteration # 23     ecut=   110.00 Ry     beta= 0.70
     Davidson diagonalization with overlap
     ethr =  2.26E-11,  avg # of iterations =  1.0

     total cpu time spent up to now is       43.6 secs

     total energy              =    -922.00287970 Ry
     Harris-Foulkes estimate   =    -922.00287971 Ry
     estimated scf accuracy    <       0.00000005 Ry

     iteration # 24     ecut=   110.00 Ry     beta= 0.70
     Davidson diagonalization with overlap
     ethr =  2.26E-11,  avg # of iterations =  4.0

     total cpu time spent up to now is       45.9 secs

     total energy              =    -922.00287970 Ry
     Harris-Foulkes estimate   =    -922.00287970 Ry
     estimated scf accuracy    <          1.8E-09 Ry

     iteration # 25     ecut=   110.00 Ry     beta= 0.70
     Davidson diagonalization with overlap
     ethr =  1.64E-12,  avg # of iterations =  5.0

     total cpu time spent up to now is       48.6 secs

     total energy              =    -922.00287970 Ry
     Harris-Foulkes estimate   =    -922.00287970 Ry
     estimated scf accuracy    <          1.0E-09 Ry

     iteration # 26     ecut=   110.00 Ry     beta= 0.70
     Davidson diagonalization with overlap
     ethr =  9.22E-13,  avg # of iterations =  1.0

     total cpu time spent up to now is       49.9 secs

     total energy              =    -922.00287970 Ry
     Harris-Foulkes estimate   =    -922.00287970 Ry
     estimated scf accuracy    <          9.8E-10 Ry

     iteration # 27     ecut=   110.00 Ry     beta= 0.70
     Davidson diagonalization with overlap
     ethr =  8.79E-13,  avg # of iterations =  2.2

     total cpu time spent up to now is       51.4 secs

     total energy              =    -922.00287970 Ry
     Harris-Foulkes estimate   =    -922.00287970 Ry
     estimated scf accuracy    <          3.3E-10 Ry

     iteration # 28     ecut=   110.00 Ry     beta= 0.70
     Davidson diagonalization with overlap
     ethr =  2.97E-13,  avg # of iterations =  4.0

     total cpu time spent up to now is       53.9 secs

     End of self-consistent calculation

          k = 0.0000 0.0000 0.0000 ( 26325 PWs)   bands (ev):

   -61.0007 -60.9986 -60.9895 -60.9874 -35.0428 -35.0403 -35.0316 -35.0259
   -34.9377 -34.8842 -34.8593 -34.8358 -34.8333 -34.8083 -34.7996 -34.7971
   -14.5276 -14.4112 -13.4337 -13.3341 -13.2601 -13.2035 -12.7869 -12.7696
   -12.6417 -12.6354  -1.4759  -1.4655  -1.2890  -1.2595  -1.0662  -0.7225
    -0.1470   0.0920   0.1960   0.2558   0.5063   0.5735   0.6562   0.7677
     0.7969   0.9375   1.0447   1.2118   1.2182   1.2964   1.3577   1.4086
     1.7159   1.7643   2.0354   2.0630   2.1509   2.2812   2.3752   2.4442

          k = 0.0000 0.2438 0.0000 ( 26335 PWs)   bands (ev):

   -61.0007 -60.9986 -60.9895 -60.9874 -35.0430 -35.0405 -35.0325 -35.0268
   -34.9376 -34.8841 -34.8593 -34.8357 -34.8332 -34.8083 -34.7996 -34.7971
   -14.4981 -14.3867 -13.4137 -13.3282 -13.2582 -13.1937 -12.7964 -12.7722
   -12.6447 -12.6118  -1.4926  -1.4819  -1.3056  -1.2779  -1.1718  -0.7529
    -0.7072  -0.3561  -0.2697  -0.2121   0.3750   0.3892   0.4501   0.8576
     0.8980   1.0594   1.2274   1.2753   1.3975   1.4747   1.5857   1.7183
     1.8894   1.9904   2.0073   2.1163   2.1975   2.3757   2.4519   2.5184

          k = 0.3333 0.0000 0.0000 ( 26364 PWs)   bands (ev):

   -60.9964 -60.9943 -60.9908 -60.9887 -35.0367 -35.0342 -35.0300 -35.0257
   -34.9351 -34.9097 -34.8947 -34.8870 -34.8385 -34.8333 -34.8175 -34.8066
   -13.9688 -13.8413 -13.3480 -13.2317 -13.2085 -13.1635 -12.7248 -12.7123
   -12.6656 -12.6607  -1.9463  -1.8708  -1.1110  -1.0585  -0.9636  -0.6319
    -0.5352  -0.2436  -0.2116   0.0701   0.1019   0.2129   0.5502   0.6487
     0.7127   0.7522   0.7708   0.8636   0.9896   1.0321   1.3005   1.3393
     1.4057   1.7360   2.1093   2.1909   2.2977   2.4810   2.6007   2.6235

          k = 0.3333 0.2438 0.0000 ( 26299 PWs)   bands (ev):

   -60.9963 -60.9943 -60.9908 -60.9887 -35.0371 -35.0346 -35.0307 -35.0264
   -34.9350 -34.9097 -34.8946 -34.8869 -34.8385 -34.8333 -34.8175 -34.8067
   -13.9434 -13.8231 -13.3332 -13.2308 -13.2017 -13.1553 -12.7324 -12.7128
   -12.6548 -12.6280  -1.9457  -1.8709  -1.1432  -1.0908  -1.0331  -0.6794
    -0.6642  -0.5501  -0.3853  -0.1950  -0.1000  -0.0857   0.3725   0.4186
     0.4418   0.5975   0.7008   0.7755   0.8219   1.1938   1.4696   1.6774
     1.8269   1.9400   2.2147   2.4471   2.4574   2.6074   2.6833   2.7188

     highest occupied level (ev):     2.7188

!    total energy              =    -922.00287970 Ry
     Harris-Foulkes estimate   =    -922.00287970 Ry
     estimated scf accuracy    <          6.9E-11 Ry

     The total energy is the sum of the following terms:

     one-electron contribution =    -664.15526812 Ry
     hartree contribution      =     367.16329699 Ry
     xc contribution           =    -173.98648411 Ry
     ewald contribution        =    -451.02442446 Ry

     convergence has been achieved in  28 iterations

     Forces acting on atoms (cartesian axes, Ry/au):

     atom    1 type  1   force =    -0.00000000   -0.00000475   -0.00001050
     atom    2 type  1   force =     0.00000000    0.00000475    0.00001050
     atom    3 type  1   force =     0.00000000    0.00000475   -0.00001050
     atom    4 type  1   force =    -0.00000000   -0.00000475    0.00001050
     atom    5 type  2   force =     0.00000000    0.00000051    0.00000682
     atom    6 type  2   force =     0.00000000   -0.00000051   -0.00000682
     atom    7 type  2   force =     0.00000000   -0.00000051    0.00000682
     atom    8 type  2   force =     0.00000000    0.00000051   -0.00000682
     atom    9 type  2   force =     0.00000000    0.00000371    0.00000057
     atom   10 type  2   force =     0.00000000   -0.00000371   -0.00000057
     atom   11 type  2   force =     0.00000000   -0.00000371    0.00000057
     atom   12 type  2   force =     0.00000000   -0.00000156    0.00000000
     atom   13 type  2   force =     0.00000000    0.00000156   -0.00000000
     atom   14 type  2   force =     0.00000000    0.00000371   -0.00000057

     Total force =     0.000028     Total SCF correction =     0.000027
     SCF correction compared to forces is large: reduce conv_thr to get better values


     Computing stress (Cartesian axis) and pressure

          total   stress  (Ry/bohr**3)                   (kbar)     P=   -0.00
  -0.00000003   0.00000000   0.00000000         -0.00      0.00      0.00
   0.00000000  -0.00000006   0.00000000          0.00     -0.01      0.00
   0.00000000   0.00000000   0.00000004          0.00      0.00      0.01


     BFGS Geometry Optimization

     number of scf cycles    =   1
     number of bfgs steps    =   0

     enthalpy new            =    -922.0028797040 Ry

     new trust radius        =       0.0000115232 bohr
     new conv_thr            =            1.0E-10 Ry

     new unit-cell volume =   1351.10692 a.u.^3 (   200.21339 Ang^3 )
     density =      3.01697 g/cm^3

CELL_PARAMETERS (alat=  6.74981256)
   0.999999330   0.000000000   0.000000000
   0.000000000   1.367021687   0.000000000
   0.000000000   0.000000000   3.213952590

ATOMIC_POSITIONS (crystal)
V       -0.000000000   0.390813553   0.648739845
V        0.500000002   0.609186451   0.851260161
V        0.500000002   0.609186451   0.148739844
V       -0.000000000   0.390813553   0.351260158
O        0.500000002   0.489703401   0.681561143
O        0.000000000   0.510296604   0.818438862
O        0.000000000   0.510296604   0.181561142
O        0.500000002   0.489703401   0.318438860
O        0.000000000   0.067636234   0.355879332
O        0.500000002   0.932363770   0.144120671
O        0.500000002   0.932363770   0.855879333
O        0.500000002   0.501047861   0.000000000
O        0.000000000   0.498952143   0.500000002
O        0.000000000   0.067636234   0.644120674



     Writing output data file v2o5.save/
     NEW-OLD atomic charge density approx. for the potential
     extrapolated charge  111.99988, renormalised to  112.00000

     total cpu time spent up to now is       62.1 secs

     Self-consistent Calculation

     iteration #  1     ecut=   110.00 Ry     beta= 0.70
     Davidson diagonalization with overlap
     ethr =  1.00E-06,  avg # of iterations =  1.0

     Threshold (ethr) on eigenvalues was too large:
     Diagonalizing with lowered threshold

     Davidson diagonalization with overlap
     ethr =  4.15E-12,  avg # of iterations =  5.0

     total cpu time spent up to now is       69.9 secs

     total energy              =    -922.00287969 Ry
     Harris-Foulkes estimate   =    -922.00348877 Ry
     estimated scf accuracy    <       0.00000002 Ry

     iteration #  2     ecut=   110.00 Ry     beta= 0.70
     Davidson diagonalization with overlap
     ethr =  1.42E-11,  avg # of iterations =  5.0

     total cpu time spent up to now is       75.6 secs

     total energy              =    -922.00287967 Ry
     Harris-Foulkes estimate   =    -922.00287975 Ry
     estimated scf accuracy    <       0.00000040 Ry

     iteration #  3     ecut=   110.00 Ry     beta= 0.70
     Davidson diagonalization with overlap
     ethr =  1.42E-11,  avg # of iterations =  5.0

     total cpu time spent up to now is       81.3 secs

     total energy              =    -922.00287970 Ry
     Harris-Foulkes estimate   =    -922.00287971 Ry
     estimated scf accuracy    <          3.1E-09 Ry

     iteration #  4     ecut=   110.00 Ry     beta= 0.70
     Davidson diagonalization with overlap
     ethr =  2.73E-12,  avg # of iterations =  1.2

     total cpu time spent up to now is       83.5 secs

     total energy              =    -922.00287970 Ry
     Harris-Foulkes estimate   =    -922.00287970 Ry
     estimated scf accuracy    <          1.7E-09 Ry

     iteration #  5     ecut=   110.00 Ry     beta= 0.70
     Davidson diagonalization with overlap
     ethr =  1.53E-12,  avg # of iterations =  1.2

     total cpu time spent up to now is       85.8 secs

     total energy              =    -922.00287970 Ry
     Harris-Foulkes estimate   =    -922.00287970 Ry
     estimated scf accuracy    <          1.1E-09 Ry

     iteration #  6     ecut=   110.00 Ry     beta= 0.70
     Davidson diagonalization with overlap
     ethr =  1.01E-12,  avg # of iterations =  4.0

     total cpu time spent up to now is       89.8 secs

     total energy              =    -922.00287970 Ry
     Harris-Foulkes estimate   =    -922.00287970 Ry
     estimated scf accuracy    <          6.8E-10 Ry

     iteration #  7     ecut=   110.00 Ry     beta= 0.70
     Davidson diagonalization with overlap
     ethr =  6.09E-13,  avg # of iterations =  1.0

     total cpu time spent up to now is       92.1 secs

     total energy              =    -922.00287970 Ry
     Harris-Foulkes estimate   =    -922.00287970 Ry
     estimated scf accuracy    <          5.4E-10 Ry

     iteration #  8     ecut=   110.00 Ry     beta= 0.70
     Davidson diagonalization with overlap
     ethr =  4.83E-13,  avg # of iterations =  3.8

     total cpu time spent up to now is       95.6 secs

     End of self-consistent calculation

          k = 0.0000 0.0000 0.0000 ( 26325 PWs)   bands (ev):

   -61.0006 -60.9986 -60.9894 -60.9874 -35.0427 -35.0403 -35.0315 -35.0259
   -34.9377 -34.8842 -34.8593 -34.8357 -34.8332 -34.8083 -34.7996 -34.7971
   -14.5275 -14.4112 -13.4337 -13.3341 -13.2600 -13.2035 -12.7869 -12.7696
   -12.6417 -12.6354  -1.4758  -1.4655  -1.2890  -1.2594  -1.0662  -0.7225
    -0.1470   0.0920   0.1960   0.2558   0.5063   0.5735   0.6561   0.7677
     0.7969   0.9375   1.0447   1.2118   1.2182   1.2963   1.3577   1.4086
     1.7159   1.7643   2.0354   2.0630   2.1510   2.2812   2.3752   2.4443

          k = 0.0000 0.2438 0.0000 ( 26335 PWs)   bands (ev):

   -61.0006 -60.9986 -60.9894 -60.9874 -35.0430 -35.0405 -35.0325 -35.0268
   -34.9376 -34.8840 -34.8593 -34.8357 -34.8332 -34.8083 -34.7996 -34.7971
   -14.4980 -14.3866 -13.4137 -13.3282 -13.2582 -13.1937 -12.7964 -12.7722
   -12.6447 -12.6118  -1.4926  -1.4818  -1.3056  -1.2779  -1.1718  -0.7529
    -0.7072  -0.3560  -0.2698  -0.2121   0.3750   0.3892   0.4502   0.8575
     0.8980   1.0594   1.2274   1.2753   1.3975   1.4747   1.5857   1.7183
     1.8894   1.9904   2.0073   2.1164   2.1976   2.3757   2.4519   2.5184

          k = 0.3333 0.0000 0.0000 ( 26364 PWs)   bands (ev):

   -60.9963 -60.9943 -60.9907 -60.9887 -35.0367 -35.0342 -35.0299 -35.0257
   -34.9350 -34.9097 -34.8947 -34.8869 -34.8385 -34.8333 -34.8175 -34.8066
   -13.9687 -13.8413 -13.3480 -13.2316 -13.2084 -13.1635 -12.7248 -12.7123
   -12.6656 -12.6607  -1.9462  -1.8707  -1.1109  -1.0585  -0.9636  -0.6319
    -0.5352  -0.2436  -0.2116   0.0701   0.1019   0.2129   0.5502   0.6487
     0.7127   0.7522   0.7708   0.8636   0.9896   1.0322   1.3005   1.3393
     1.4057   1.7360   2.1093   2.1909   2.2977   2.4810   2.6008   2.6235

          k = 0.3333 0.2438 0.0000 ( 26299 PWs)   bands (ev):

   -60.9963 -60.9943 -60.9907 -60.9887 -35.0370 -35.0346 -35.0307 -35.0264
   -34.9349 -34.9096 -34.8945 -34.8869 -34.8385 -34.8333 -34.8175 -34.8066
   -13.9434 -13.8231 -13.3332 -13.2308 -13.2017 -13.1553 -12.7324 -12.7128
   -12.6548 -12.6280  -1.9457  -1.8709  -1.1431  -1.0908  -1.0331  -0.6794
    -0.6642  -0.5501  -0.3853  -0.1950  -0.1000  -0.0857   0.3725   0.4187
     0.4418   0.5975   0.7008   0.7755   0.8219   1.1938   1.4696   1.6774
     1.8269   1.9401   2.2147   2.4471   2.4574   2.6074   2.6833   2.7188

     highest occupied level (ev):     2.7188

!    total energy              =    -922.00287970 Ry
     Harris-Foulkes estimate   =    -922.00287970 Ry
     estimated scf accuracy    <          2.4E-11 Ry

     The total energy is the sum of the following terms:

     one-electron contribution =    -664.15502963 Ry
     hartree contribution      =     367.16330214 Ry
     xc contribution           =    -173.98652097 Ry
     ewald contribution        =    -451.02463124 Ry

     convergence has been achieved in   8 iterations

     Forces acting on atoms (cartesian axes, Ry/au):

     atom    1 type  1   force =    -0.00000000    0.00001012   -0.00000424
     atom    2 type  1   force =     0.00000000   -0.00001012    0.00000424
     atom    3 type  1   force =     0.00000000   -0.00001012   -0.00000424
     atom    4 type  1   force =    -0.00000000    0.00001012    0.00000424
     atom    5 type  2   force =    -0.00000000   -0.00000027    0.00000484
     atom    6 type  2   force =     0.00000000    0.00000027   -0.00000484
     atom    7 type  2   force =     0.00000000    0.00000027    0.00000484
     atom    8 type  2   force =    -0.00000000   -0.00000027   -0.00000484
     atom    9 type  2   force =     0.00000000   -0.00000934    0.00000151
     atom   10 type  2   force =     0.00000000    0.00000934   -0.00000151
     atom   11 type  2   force =     0.00000000    0.00000934    0.00000151
     atom   12 type  2   force =    -0.00000000   -0.00000253    0.00000000
     atom   13 type  2   force =     0.00000000    0.00000253    0.00000000
     atom   14 type  2   force =     0.00000000   -0.00000934   -0.00000151

     Total force =     0.000031     Total SCF correction =     0.000018
     SCF correction compared to forces is large: reduce conv_thr to get better values


     Computing stress (Cartesian axis) and pressure

          total   stress  (Ry/bohr**3)                   (kbar)     P=    0.00
  -0.00000004   0.00000000   0.00000000         -0.01      0.00      0.00
   0.00000000   0.00000007   0.00000000          0.00      0.01      0.00
   0.00000000   0.00000000   0.00000006          0.00      0.00      0.01


     number of scf cycles    =   2
     number of bfgs steps    =   1

     enthalpy old            =    -922.0028797040 Ry
     enthalpy new            =    -922.0028797045 Ry

     CASE: enthalpy_new < enthalpy_old

     small trust_radius: resetting bfgs history

     new trust radius        =       0.0000137474 bohr
     new conv_thr            =            1.0E-12 Ry

     new unit-cell volume =   1351.11021 a.u.^3 (   200.21387 Ang^3 )
     density =      3.01696 g/cm^3

CELL_PARAMETERS (alat=  6.74981256)
   0.999998304   0.000000000   0.000000000
   0.000000000   1.367024243   0.000000000
   0.000000000   0.000000000   3.213957711

ATOMIC_POSITIONS (crystal)
V       -0.000000000   0.390814649   0.648739650
V        0.500000002   0.609185355   0.851260356
V        0.500000002   0.609185355   0.148739649
V       -0.000000000   0.390814649   0.351260353
O        0.500000002   0.489703372   0.681561366
O        0.000000000   0.510296633   0.818438639
O        0.000000000   0.510296633   0.181561365
O        0.500000002   0.489703372   0.318438637
O        0.000000000   0.067635222   0.355879402
O        0.500000002   0.932364782   0.144120601
O        0.500000002   0.932364782   0.855879403
O        0.500000002   0.501047587   0.000000000
O        0.000000000   0.498952417   0.500000002
O        0.000000000   0.067635222   0.644120604



     Writing output data file v2o5.save/
     NEW-OLD atomic charge density approx. for the potential
     extrapolated charge  112.00027, renormalised to  112.00000

     total cpu time spent up to now is      103.8 secs

     Self-consistent Calculation

     iteration #  1     ecut=   110.00 Ry     beta= 0.70
     Davidson diagonalization with overlap
     ethr =  1.00E-06,  avg # of iterations =  1.0

     Threshold (ethr) on eigenvalues was too large:
     Diagonalizing with lowered threshold

     Davidson diagonalization with overlap
     ethr =  6.43E-12,  avg # of iterations =  4.0

     total cpu time spent up to now is      111.1 secs

     total energy              =    -922.00287968 Ry
     Harris-Foulkes estimate   =    -922.00153918 Ry
     estimated scf accuracy    <       0.00000003 Ry

     iteration #  2     ecut=   110.00 Ry     beta= 0.70
     Davidson diagonalization with overlap
     ethr =  2.56E-11,  avg # of iterations =  6.0

     total cpu time spent up to now is      116.9 secs

     total energy              =    -922.00287965 Ry
     Harris-Foulkes estimate   =    -922.00287980 Ry
     estimated scf accuracy    <       0.00000078 Ry

     iteration #  3     ecut=   110.00 Ry     beta= 0.70
     Davidson diagonalization with overlap
     ethr =  2.56E-11,  avg # of iterations =  5.0

     total cpu time spent up to now is      122.7 secs

     total energy              =    -922.00287970 Ry
     Harris-Foulkes estimate   =    -922.00287971 Ry
     estimated scf accuracy    <       0.00000001 Ry

     iteration #  4     ecut=   110.00 Ry     beta= 0.70
     Davidson diagonalization with overlap
     ethr =  1.27E-11,  avg # of iterations =  1.0

     total cpu time spent up to now is      124.7 secs

     total energy              =    -922.00287970 Ry
     Harris-Foulkes estimate   =    -922.00287971 Ry
     estimated scf accuracy    <          9.5E-09 Ry

     iteration #  5     ecut=   110.00 Ry     beta= 0.70
     Davidson diagonalization with overlap
     ethr =  8.52E-12,  avg # of iterations =  2.8

     total cpu time spent up to now is      127.0 secs

     total energy              =    -922.00287970 Ry
     Harris-Foulkes estimate   =    -922.00287970 Ry
     estimated scf accuracy    <          4.1E-09 Ry

     iteration #  6     ecut=   110.00 Ry     beta= 0.70
     Davidson diagonalization with overlap
     ethr =  3.62E-12,  avg # of iterations =  4.2

     total cpu time spent up to now is      130.6 secs

     total energy              =    -922.00287970 Ry
     Harris-Foulkes estimate   =    -922.00287970 Ry
     estimated scf accuracy    <          2.9E-10 Ry

     iteration #  7     ecut=   110.00 Ry     beta= 0.70
     Davidson diagonalization with overlap
     ethr =  2.61E-13,  avg # of iterations =  5.0

     total cpu time spent up to now is      135.3 secs

     total energy              =    -922.00287970 Ry
     Harris-Foulkes estimate   =    -922.00287970 Ry
     estimated scf accuracy    <          1.3E-10 Ry

     iteration #  8     ecut=   110.00 Ry     beta= 0.70
     Davidson diagonalization with overlap
     ethr =  1.19E-13,  avg # of iterations =  4.2

     total cpu time spent up to now is      140.4 secs

     total energy              =    -922.00287970 Ry
     Harris-Foulkes estimate   =    -922.00287970 Ry
     estimated scf accuracy    <          4.9E-10 Ry

     iteration #  9     ecut=   110.00 Ry     beta= 0.70
     Davidson diagonalization with overlap
     ethr =  1.19E-13,  avg # of iterations =  4.2

     total cpu time spent up to now is      144.4 secs

     total energy              =    -922.00287970 Ry
     Harris-Foulkes estimate   =    -922.00287970 Ry
     estimated scf accuracy    <          8.7E-10 Ry

     iteration # 10     ecut=   110.00 Ry     beta= 0.70
     Davidson diagonalization with overlap
     ethr =  1.19E-13,  avg # of iterations =  3.8

     total cpu time spent up to now is      150.4 secs

     total energy              =    -922.00287970 Ry
     Harris-Foulkes estimate   =    -922.00287970 Ry
     estimated scf accuracy    <          1.1E-09 Ry

     iteration # 11     ecut=   110.00 Ry     beta= 0.70
     Davidson diagonalization with overlap
     ethr =  1.19E-13,  avg # of iterations =  3.8

     total cpu time spent up to now is      205.9 secs

     total energy              =    -922.00287970 Ry
     Harris-Foulkes estimate   =    -922.00287970 Ry
     estimated scf accuracy    <          5.8E-10 Ry

     iteration # 12     ecut=   110.00 Ry     beta= 0.70
     Davidson diagonalization with overlap
     ethr =  1.19E-13,  avg # of iterations =  4.0

     total cpu time spent up to now is      280.1 secs

     total energy              =    -922.00287970 Ry
     Harris-Foulkes estimate   =    -922.00287970 Ry
     estimated scf accuracy    <          1.4E-10 Ry

     iteration # 13     ecut=   110.00 Ry     beta= 0.70
     Davidson diagonalization with overlap
     ethr =  1.19E-13,  avg # of iterations =  4.0

     total cpu time spent up to now is      404.4 secs

     total energy              =    -922.00287970 Ry
     Harris-Foulkes estimate   =    -922.00287970 Ry
     estimated scf accuracy    <          1.1E-10 Ry

     iteration # 14     ecut=   110.00 Ry     beta= 0.70
     Davidson diagonalization with overlap
     ethr =  1.00E-13,  avg # of iterations =  1.0

     total cpu time spent up to now is      433.7 secs

     total energy              =    -922.00287970 Ry
     Harris-Foulkes estimate   =    -922.00287970 Ry
     estimated scf accuracy    <          1.2E-10 Ry

     iteration # 15     ecut=   110.00 Ry     beta= 0.70
     Davidson diagonalization with overlap
     ethr =  1.00E-13,  avg # of iterations =  4.0

     total cpu time spent up to now is      474.0 secs

     total energy              =    -922.00287970 Ry
     Harris-Foulkes estimate   =    -922.00287970 Ry
     estimated scf accuracy    <          2.6E-12 Ry

     iteration # 16     ecut=   110.00 Ry     beta= 0.70
     Davidson diagonalization with overlap
     ethr =  1.00E-13,  avg # of iterations =  1.0

     total cpu time spent up to now is      504.1 secs

     End of self-consistent calculation

          k = 0.0000 0.0000 0.0000 ( 26325 PWs)   bands (ev):

   -61.0007 -60.9986 -60.9895 -60.9874 -35.0427 -35.0403 -35.0316 -35.0259
   -34.9378 -34.8842 -34.8593 -34.8358 -34.8333 -34.8083 -34.7996 -34.7971
   -14.5276 -14.4112 -13.4338 -13.3341 -13.2601 -13.2036 -12.7869 -12.7696
   -12.6417 -12.6354  -1.4759  -1.4655  -1.2891  -1.2595  -1.0662  -0.7225
    -0.1470   0.0920   0.1960   0.2558   0.5063   0.5736   0.6562   0.7677
     0.7969   0.9375   1.0447   1.2118   1.2182   1.2964   1.3577   1.4086
     1.7159   1.7642   2.0354   2.0630   2.1509   2.2812   2.3752   2.4442

          k = 0.0000 0.2438 0.0000 ( 26335 PWs)   bands (ev):

   -61.0007 -60.9986 -60.9895 -60.9875 -35.0430 -35.0405 -35.0325 -35.0268
   -34.9376 -34.8841 -34.8593 -34.8357 -34.8332 -34.8083 -34.7996 -34.7971
   -14.4981 -14.3867 -13.4138 -13.3282 -13.2582 -13.1938 -12.7964 -12.7722
   -12.6447 -12.6118  -1.4926  -1.4819  -1.3057  -1.2779  -1.1718  -0.7529
    -0.7072  -0.3561  -0.2697  -0.2121   0.3751   0.3892   0.4502   0.8576
     0.8980   1.0594   1.2274   1.2753   1.3975   1.4748   1.5857   1.7183
     1.8894   1.9904   2.0073   2.1163   2.1975   2.3757   2.4519   2.5184

          k = 0.3333 0.0000 0.0000 ( 26364 PWs)   bands (ev):

   -60.9964 -60.9943 -60.9908 -60.9887 -35.0367 -35.0342 -35.0300 -35.0257
   -34.9351 -34.9097 -34.8947 -34.8870 -34.8386 -34.8333 -34.8175 -34.8067
   -13.9688 -13.8413 -13.3481 -13.2317 -13.2085 -13.1635 -12.7248 -12.7123
   -12.6656 -12.6607  -1.9463  -1.8708  -1.1110  -1.0585  -0.9636  -0.6319
    -0.5352  -0.2436  -0.2116   0.0701   0.1019   0.2129   0.5502   0.6487
     0.7127   0.7522   0.7708   0.8636   0.9896   1.0322   1.3005   1.3393
     1.4057   1.7360   2.1093   2.1909   2.2977   2.4810   2.6007   2.6235

          k = 0.3333 0.2438 0.0000 ( 26299 PWs)   bands (ev):

   -60.9964 -60.9943 -60.9908 -60.9887 -35.0371 -35.0346 -35.0307 -35.0264
   -34.9350 -34.9097 -34.8946 -34.8869 -34.8386 -34.8333 -34.8175 -34.8067
   -13.9434 -13.8231 -13.3333 -13.2308 -13.2017 -13.1553 -12.7323 -12.7128
   -12.6548 -12.6280  -1.9457  -1.8709  -1.1432  -1.0908  -1.0331  -0.6794
    -0.6642  -0.5501  -0.3853  -0.1950  -0.1000  -0.0857   0.3725   0.4187
     0.4418   0.5975   0.7008   0.7755   0.8219   1.1938   1.4696   1.6775
     1.8269   1.9400   2.2147   2.4471   2.4574   2.6074   2.6832   2.7188

     highest occupied level (ev):     2.7188

!    total energy              =    -922.00287970 Ry
     Harris-Foulkes estimate   =    -922.00287970 Ry
     estimated scf accuracy    <          7.8E-13 Ry

     The total energy is the sum of the following terms:

     one-electron contribution =    -664.15461637 Ry
     hartree contribution      =     367.16296494 Ry
     xc contribution           =    -173.98645672 Ry
     ewald contribution        =    -451.02477155 Ry

     convergence has been achieved in  16 iterations

     Forces acting on atoms (cartesian axes, Ry/au):

     atom    1 type  1   force =    -0.00000000   -0.00001602   -0.00000447
     atom    2 type  1   force =     0.00000000    0.00001602    0.00000447
     atom    3 type  1   force =     0.00000000    0.00001602   -0.00000447
     atom    4 type  1   force =     0.00000000   -0.00001602    0.00000447
     atom    5 type  2   force =     0.00000000    0.00000032    0.00000419
     atom    6 type  2   force =     0.00000000   -0.00000032   -0.00000419
     atom    7 type  2   force =     0.00000000   -0.00000032    0.00000419
     atom    8 type  2   force =     0.00000000    0.00000032   -0.00000419
     atom    9 type  2   force =    -0.00000000    0.00001614    0.00000144
     atom   10 type  2   force =    -0.00000000   -0.00001614   -0.00000144
     atom   11 type  2   force =     0.00000000   -0.00001614    0.00000144
     atom   12 type  2   force =    -0.00000000   -0.00000240    0.00000000
     atom   13 type  2   force =     0.00000000    0.00000240   -0.00000000
     atom   14 type  2   force =     0.00000000    0.00001614   -0.00000144

     Total force =     0.000047     Total SCF correction =     0.000003


     Computing stress (Cartesian axis) and pressure

          total   stress  (Ry/bohr**3)                   (kbar)     P=   -0.01
  -0.00000002   0.00000000   0.00000000         -0.00      0.00      0.00
   0.00000000  -0.00000015   0.00000000          0.00     -0.02      0.00
   0.00000000   0.00000000   0.00000006          0.00      0.00      0.01


     number of scf cycles    =   3
     number of bfgs steps    =   2

     enthalpy old            =    -922.0028797045 Ry
     enthalpy new            =    -922.0028797045 Ry

     CASE: enthalpy_new < enthalpy_old

     Message from routine bfgs:
     history already reset at previous step: stopping
     small trust_radius: resetting bfgs history

     new trust radius        =       0.0000274150 bohr
     new conv_thr            =            1.0E-12 Ry

     new unit-cell volume =   1351.10630 a.u.^3 (   200.21330 Ang^3 )
     density =      3.01697 g/cm^3

CELL_PARAMETERS (alat=  6.74981256)
   0.999997727   0.000000000   0.000000000
   0.000000000   1.367019145   0.000000000
   0.000000000   0.000000000   3.213962261

ATOMIC_POSITIONS (crystal)
V       -0.000000000   0.390812912   0.648739444
V        0.500000002   0.609187092   0.851260562
V        0.500000002   0.609187092   0.148739443
V       -0.000000000   0.390812912   0.351260559
O        0.500000002   0.489703407   0.681561560
O        0.000000000   0.510296598   0.818438445
O        0.000000000   0.510296598   0.181561559
O        0.500000002   0.489703407   0.318438443
O       -0.000000000   0.067636972   0.355879468
O        0.500000002   0.932363032   0.144120535
O        0.500000002   0.932363032   0.855879469
O        0.500000002   0.501047327   0.000000000
O        0.000000000   0.498952677   0.500000002
O        0.000000000   0.067636972   0.644120538



     Writing output data file v2o5.save/
     NEW-OLD atomic charge density approx. for the potential
     extrapolated charge  111.99968, renormalised to  112.00000

     total cpu time spent up to now is      520.0 secs

     Self-consistent Calculation

     iteration #  1     ecut=   110.00 Ry     beta= 0.70
     Davidson diagonalization with overlap
     ethr =  1.00E-06,  avg # of iterations =  1.0

     Threshold (ethr) on eigenvalues was too large:
     Diagonalizing with lowered threshold

     Davidson diagonalization with overlap
     ethr =  1.34E-11,  avg # of iterations =  4.2

     total cpu time spent up to now is      560.0 secs

     total energy              =    -922.00287966 Ry
     Harris-Foulkes estimate   =    -922.00446964 Ry
     estimated scf accuracy    <       0.00000005 Ry

     iteration #  2     ecut=   110.00 Ry     beta= 0.70
     Davidson diagonalization with overlap
     ethr =  4.07E-11,  avg # of iterations =  6.0

     total cpu time spent up to now is      577.4 secs

     total energy              =    -922.00287961 Ry
     Harris-Foulkes estimate   =    -922.00287985 Ry
     estimated scf accuracy    <       0.00000121 Ry

     iteration #  3     ecut=   110.00 Ry     beta= 0.70
     Davidson diagonalization with overlap
     ethr =  4.07E-11,  avg # of iterations =  5.0

     total cpu time spent up to now is      600.8 secs

     total energy              =    -922.00287970 Ry
     Harris-Foulkes estimate   =    -922.00287971 Ry
     estimated scf accuracy    <       0.00000002 Ry

     iteration #  4     ecut=   110.00 Ry     beta= 0.70
     Davidson diagonalization with overlap
     ethr =  1.70E-11,  avg # of iterations =  1.0

     total cpu time spent up to now is      613.1 secs

     total energy              =    -922.00287970 Ry
     Harris-Foulkes estimate   =    -922.00287970 Ry
     estimated scf accuracy    <       0.00000001 Ry

     iteration #  5     ecut=   110.00 Ry     beta= 0.70
     Davidson diagonalization with overlap
     ethr =  1.09E-11,  avg # of iterations =  4.0

     total cpu time spent up to now is      636.9 secs

     total energy              =    -922.00287970 Ry
     Harris-Foulkes estimate   =    -922.00287970 Ry
     estimated scf accuracy    <          1.7E-09 Ry

     iteration #  6     ecut=   110.00 Ry     beta= 0.70
     Davidson diagonalization with overlap
     ethr =  1.55E-12,  avg # of iterations =  5.0

     total cpu time spent up to now is      671.2 secs

     total energy              =    -922.00287970 Ry
     Harris-Foulkes estimate   =    -922.00287970 Ry
     estimated scf accuracy    <          6.9E-10 Ry

     iteration #  7     ecut=   110.00 Ry     beta= 0.70
     Davidson diagonalization with overlap
     ethr =  6.18E-13,  avg # of iterations =  1.0

     total cpu time spent up to now is      689.5 secs

     total energy              =    -922.00287970 Ry
     Harris-Foulkes estimate   =    -922.00287970 Ry
     estimated scf accuracy    <          7.4E-10 Ry

     iteration #  8     ecut=   110.00 Ry     beta= 0.70
     Davidson diagonalization with overlap
     ethr =  6.18E-13,  avg # of iterations =  1.0

     total cpu time spent up to now is      703.0 secs

     total energy              =    -922.00287970 Ry
     Harris-Foulkes estimate   =    -922.00287970 Ry
     estimated scf accuracy    <          7.0E-10 Ry

     iteration #  9     ecut=   110.00 Ry     beta= 0.70
     Davidson diagonalization with overlap
     ethr =  6.18E-13,  avg # of iterations =  5.0

     total cpu time spent up to now is      741.1 secs

     total energy              =    -922.00287971 Ry
     Harris-Foulkes estimate   =    -922.00287971 Ry
     estimated scf accuracy    <       0.00000002 Ry

     iteration # 10     ecut=   110.00 Ry     beta= 0.70
     Davidson diagonalization with overlap
     ethr =  6.18E-13,  avg # of iterations =  4.8

     total cpu time spent up to now is      763.8 secs

     total energy              =    -922.00287973 Ry
     Harris-Foulkes estimate   =    -922.00287971 Ry
     estimated scf accuracy    <       0.00000006 Ry

     iteration # 11     ecut=   110.00 Ry     beta= 0.70
     Davidson diagonalization with overlap
     ethr =  6.18E-13,  avg # of iterations =  6.0

     total cpu time spent up to now is      791.5 secs

     total energy              =    -922.00287968 Ry
     Harris-Foulkes estimate   =    -922.00287974 Ry
     estimated scf accuracy    <       0.00000029 Ry

     iteration # 12     ecut=   110.00 Ry     beta= 0.70
     Davidson diagonalization with overlap
     ethr =  6.18E-13,  avg # of iterations =  6.0

     total cpu time spent up to now is      822.3 secs

     total energy              =    -922.00287970 Ry
     Harris-Foulkes estimate   =    -922.00287970 Ry
     estimated scf accuracy    <          6.9E-09 Ry

     iteration # 13     ecut=   110.00 Ry     beta= 0.70
     Davidson diagonalization with overlap
     ethr =  6.18E-13,  avg # of iterations =  5.5

     total cpu time spent up to now is      859.8 secs

     total energy              =    -922.00287971 Ry
     Harris-Foulkes estimate   =    -922.00287971 Ry
     estimated scf accuracy    <       0.00000001 Ry

     iteration # 14     ecut=   110.00 Ry     beta= 0.70
     Davidson diagonalization with overlap
     ethr =  6.18E-13,  avg # of iterations =  4.0

     total cpu time spent up to now is      889.2 secs

     total energy              =    -922.00287970 Ry
     Harris-Foulkes estimate   =    -922.00287971 Ry
     estimated scf accuracy    <       0.00000002 Ry

     iteration # 15     ecut=   110.00 Ry     beta= 0.70
     Davidson diagonalization with overlap
     ethr =  6.18E-13,  avg # of iterations =  5.5

     total cpu time spent up to now is      937.3 secs

     total energy              =    -922.00287970 Ry
     Harris-Foulkes estimate   =    -922.00287970 Ry
     estimated scf accuracy    <          2.2E-09 Ry

     iteration # 16     ecut=   110.00 Ry     beta= 0.70
     Davidson diagonalization with overlap
     ethr =  6.18E-13,  avg # of iterations =  3.2

     total cpu time spent up to now is      956.0 secs

     total energy              =    -922.00287970 Ry
     Harris-Foulkes estimate   =    -922.00287970 Ry
     estimated scf accuracy    <          8.0E-10 Ry

     iteration # 17     ecut=   110.00 Ry     beta= 0.70
     Davidson diagonalization with overlap
     ethr =  6.18E-13,  avg # of iterations =  3.5

     total cpu time spent up to now is      971.2 secs

     total energy              =    -922.00287970 Ry
     Harris-Foulkes estimate   =    -922.00287970 Ry
     estimated scf accuracy    <          1.6E-10 Ry

     iteration # 18     ecut=   110.00 Ry     beta= 0.70
     Davidson diagonalization with overlap
     ethr =  1.46E-13,  avg # of iterations =  5.0

     total cpu time spent up to now is      988.5 secs

     total energy              =    -922.00287970 Ry
     Harris-Foulkes estimate   =    -922.00287970 Ry
     estimated scf accuracy    <          1.6E-10 Ry

     iteration # 19     ecut=   110.00 Ry     beta= 0.70
     Davidson diagonalization with overlap
     ethr =  1.46E-13,  avg # of iterations =  1.0

     total cpu time spent up to now is      992.7 secs

     total energy              =    -922.00287970 Ry
     Harris-Foulkes estimate   =    -922.00287970 Ry
     estimated scf accuracy    <          1.0E-10 Ry

     iteration # 20     ecut=   110.00 Ry     beta= 0.70
     Davidson diagonalization with overlap
     ethr =  1.00E-13,  avg # of iterations =  3.2

     total cpu time spent up to now is     1001.6 secs

     total energy              =    -922.00287970 Ry
     Harris-Foulkes estimate   =    -922.00287970 Ry
     estimated scf accuracy    <          3.4E-12 Ry

     iteration # 21     ecut=   110.00 Ry     beta= 0.70
     Davidson diagonalization with overlap
     ethr =  1.00E-13,  avg # of iterations =  1.5

     total cpu time spent up to now is     1005.8 secs

     End of self-consistent calculation

          k = 0.0000 0.0000 0.0000 ( 26325 PWs)   bands (ev):

   -61.0006 -60.9986 -60.9894 -60.9874 -35.0427 -35.0403 -35.0316 -35.0259
   -34.9377 -34.8841 -34.8593 -34.8357 -34.8332 -34.8083 -34.7995 -34.7971
   -14.5275 -14.4111 -13.4337 -13.3340 -13.2600 -13.2035 -12.7869 -12.7696
   -12.6418 -12.6354  -1.4758  -1.4655  -1.2890  -1.2594  -1.0661  -0.7225
    -0.1470   0.0920   0.1960   0.2558   0.5063   0.5735   0.6561   0.7676
     0.7968   0.9375   1.0447   1.2119   1.2181   1.2963   1.3577   1.4086
     1.7159   1.7643   2.0354   2.0630   2.1510   2.2813   2.3752   2.4442

          k = 0.0000 0.2438 0.0000 ( 26335 PWs)   bands (ev):

   -61.0006 -60.9986 -60.9894 -60.9874 -35.0430 -35.0405 -35.0325 -35.0269
   -34.9375 -34.8840 -34.8592 -34.8356 -34.8332 -34.8083 -34.7996 -34.7971
   -14.4980 -14.3866 -13.4137 -13.3281 -13.2581 -13.1937 -12.7964 -12.7722
   -12.6447 -12.6119  -1.4926  -1.4818  -1.3056  -1.2779  -1.1718  -0.7529
    -0.7072  -0.3560  -0.2698  -0.2121   0.3750   0.3892   0.4501   0.8575
     0.8979   1.0594   1.2274   1.2753   1.3975   1.4747   1.5857   1.7182
     1.8895   1.9904   2.0073   2.1164   2.1976   2.3757   2.4519   2.5184

          k = 0.3333 0.0000 0.0000 ( 26364 PWs)   bands (ev):

   -60.9963 -60.9943 -60.9907 -60.9887 -35.0367 -35.0342 -35.0300 -35.0257
   -34.9350 -34.9097 -34.8946 -34.8869 -34.8385 -34.8332 -34.8174 -34.8066
   -13.9687 -13.8412 -13.3480 -13.2316 -13.2084 -13.1634 -12.7248 -12.7124
   -12.6656 -12.6607  -1.9462  -1.8707  -1.1109  -1.0584  -0.9635  -0.6318
    -0.5352  -0.2436  -0.2115   0.0701   0.1019   0.2129   0.5502   0.6487
     0.7127   0.7522   0.7708   0.8636   0.9896   1.0321   1.3005   1.3393
     1.4056   1.7360   2.1093   2.1908   2.2977   2.4810   2.6008   2.6235

          k = 0.3333 0.2438 0.0000 ( 26299 PWs)   bands (ev):

   -60.9963 -60.9943 -60.9907 -60.9887 -35.0371 -35.0346 -35.0307 -35.0264
   -34.9349 -34.9096 -34.8945 -34.8868 -34.8385 -34.8332 -34.8175 -34.8066
   -13.9433 -13.8230 -13.3332 -13.2307 -13.2016 -13.1553 -12.7324 -12.7128
   -12.6548 -12.6280  -1.9456  -1.8708  -1.1431  -1.0907  -1.0330  -0.6794
    -0.6642  -0.5500  -0.3853  -0.1950  -0.1000  -0.0857   0.3725   0.4187
     0.4418   0.5975   0.7007   0.7755   0.8219   1.1937   1.4696   1.6774
     1.8269   1.9401   2.2147   2.4471   2.4574   2.6074   2.6833   2.7188

     highest occupied level (ev):     2.7188

!    total energy              =    -922.00287970 Ry
     Harris-Foulkes estimate   =    -922.00287970 Ry
     estimated scf accuracy    <          5.5E-13 Ry

     The total energy is the sum of the following terms:

     one-electron contribution =    -664.15522539 Ry
     hartree contribution      =     367.16346919 Ry
     xc contribution           =    -173.98655995 Ry
     ewald contribution        =    -451.02456355 Ry

     convergence has been achieved in  21 iterations

     Forces acting on atoms (cartesian axes, Ry/au):

     atom    1 type  1   force =     0.00000000    0.00003027   -0.00000086
     atom    2 type  1   force =    -0.00000000   -0.00003027    0.00000086
     atom    3 type  1   force =     0.00000000   -0.00003027   -0.00000086
     atom    4 type  1   force =     0.00000000    0.00003027    0.00000086
     atom    5 type  2   force =     0.00000000   -0.00000039    0.00000322
     atom    6 type  2   force =     0.00000000    0.00000039   -0.00000322
     atom    7 type  2   force =     0.00000000    0.00000039    0.00000322
     atom    8 type  2   force =     0.00000000   -0.00000039   -0.00000322
     atom    9 type  2   force =     0.00000000   -0.00002777    0.00000306
     atom   10 type  2   force =     0.00000000    0.00002777   -0.00000306
     atom   11 type  2   force =     0.00000000    0.00002777    0.00000306
     atom   12 type  2   force =     0.00000000   -0.00000072    0.00000000
     atom   13 type  2   force =    -0.00000000    0.00000072    0.00000000
     atom   14 type  2   force =    -0.00000000   -0.00002777   -0.00000306

     Total force =     0.000083     Total SCF correction =     0.000003


     Computing stress (Cartesian axis) and pressure

          total   stress  (Ry/bohr**3)                   (kbar)     P=    0.01
  -0.00000003   0.00000000   0.00000000         -0.00      0.00      0.00
   0.00000000   0.00000024   0.00000000          0.00      0.04      0.00
   0.00000000   0.00000000   0.00000004          0.00      0.00      0.01

     Message from routine bfgs:
     history already reset at previous step: stopping

     bfgs converged in   4 scf cycles and   3 bfgs steps
     (criteria: energy <  1.0E-04 Ry, force <  1.0E-05Ry/Bohr, cell <  5.0E-01kbar)

     End of BFGS Geometry Optimization

     Final enthalpy =    -922.0028797037 Ry
Begin final coordinates
     new unit-cell volume =   1351.10630 a.u.^3 (   200.21330 Ang^3 )
     density =      3.01697 g/cm^3

CELL_PARAMETERS (alat=  6.74981256)
   0.999997727   0.000000000   0.000000000
   0.000000000   1.367019145   0.000000000
   0.000000000   0.000000000   3.213962261

ATOMIC_POSITIONS (crystal)
V       -0.000000000   0.390812912   0.648739444
V        0.500000002   0.609187092   0.851260562
V        0.500000002   0.609187092   0.148739443
V       -0.000000000   0.390812912   0.351260559
O        0.500000002   0.489703407   0.681561560
O        0.000000000   0.510296598   0.818438445
O        0.000000000   0.510296598   0.181561559
O        0.500000002   0.489703407   0.318438443
O       -0.000000000   0.067636972   0.355879468
O        0.500000002   0.932363032   0.144120535
O        0.500000002   0.932363032   0.855879469
O        0.500000002   0.501047327   0.000000000
O        0.000000000   0.498952677   0.500000002
O        0.000000000   0.067636972   0.644120538
End final coordinates



     Writing output data file v2o5.save/

     A final scf calculation at the relaxed structure.
     The G-vectors are recalculated for the final unit cell
     Results may differ from those at the preceding step.

     Parallelization info
     --------------------
     sticks:   dense  smooth     PW     G-vecs:    dense   smooth      PW
     Min         136     136     36                13160    13160    1828
     Max         137     137     38                13169    13169    1835
     Sum        2185    2185    585               210637   210637   29307



     bravais-lattice index     =            8
     lattice parameter (alat)  =       6.7498  a.u.
     unit-cell volume          =    1351.1063 (a.u.)^3
     number of atoms/cell      =           14
     number of atomic types    =            2
     number of electrons       =       112.00
     number of Kohn-Sham states=           56
     kinetic-energy cutoff     =     110.0000  Ry
     charge density cutoff     =     440.0000  Ry
     convergence threshold     =      1.0E-12
     mixing beta               =       0.7000
     number of iterations used =            8  plain     mixing
     Exchange-correlation      = PBE ( 1  4  3  4 0 0)

     celldm(1)=   6.749813  celldm(2)=   1.367024  celldm(3)=   3.213949
     celldm(4)=   0.000000  celldm(5)=   0.000000  celldm(6)=   0.000000

     crystal axes: (cart. coord. in units of alat)
               a(1) = (   0.999998   0.000000   0.000000 )  
               a(2) = (   0.000000   1.367019   0.000000 )  
               a(3) = (   0.000000   0.000000   3.213962 )  

     reciprocal axes: (cart. coord. in units 2 pi/alat)
               b(1) = (  1.000002  0.000000  0.000000 )  
               b(2) = (  0.000000  0.731519  0.000000 )  
               b(3) = (  0.000000  0.000000  0.311142 )  


     PseudoPot. # 1 for V  read from file:
     /home/mpicuntureo/pseudos/v.nc.upf
     MD5 check sum: 40fb93c06b4f9d8c28c5ccd071294a04
     Pseudo is Norm-conserving + core correction, Zval = 13.0
     Generated using ONCVPSP code by D. R. Hamann
     Using radial grid of 1536 points,  6 beta functions with: 
                l(1) =   0
                l(2) =   0
                l(3) =   1
                l(4) =   1
                l(5) =   2
                l(6) =   2

     PseudoPot. # 2 for O  read from file:
     /home/mpicuntureo/pseudos/o.nc.upf
     MD5 check sum: 3e3f909f7470e8921608ab6b1f57bbae
     Pseudo is Norm-conserving + core correction, Zval =  6.0
     Generated using ONCVPSP code by D. R. Hamann
     Using radial grid of  936 points,  5 beta functions with: 
                l(1) =   0
                l(2) =   0
                l(3) =   1
                l(4) =   1
                l(5) =   2

     atomic species   valence    mass     pseudopotential
        V             13.00    50.94150     V ( 1.00)
        O              6.00    15.99940     O ( 1.00)

      8 Sym. Ops., with inversion, found ( 4 have fractional translation)



   Cartesian axes

     site n.     atom                  positions (alat units)
         1           V   tau(   1) = (  -0.0000000   0.5342487   2.0850241  )
         2           V   tau(   2) = (   0.4999989   0.8327704   2.7359193  )
         3           V   tau(   3) = (   0.4999989   0.8327704   0.4780430  )
         4           V   tau(   4) = (  -0.0000000   0.5342487   1.1289382  )
         5           O   tau(   5) = (   0.4999989   0.6694339   2.1905131  )
         6           O   tau(   6) = (   0.0000000   0.6975852   2.6304303  )
         7           O   tau(   7) = (   0.0000000   0.6975852   0.5835320  )
         8           O   tau(   8) = (   0.4999989   0.6694339   1.0234491  )
         9           O   tau(   9) = (  -0.0000000   0.0924610   1.1437832  )
        10           O   tau(  10) = (   0.4999989   1.2745581   0.4631980  )
        11           O   tau(  11) = (   0.4999989   1.2745581   2.7507643  )
        12           O   tau(  12) = (   0.4999989   0.6849413   0.0000000  )
        13           O   tau(  13) = (   0.0000000   0.6820779   1.6069811  )
        14           O   tau(  14) = (   0.0000000   0.0924610   2.0701791  )

     number of k points=     4
                       cart. coord. in units 2pi/alat
        k(    1) = (   0.0000000   0.0000000   0.0000000), wk =   0.2222222
        k(    2) = (   0.0000000   0.2438396   0.0000000), wk =   0.4444444
        k(    3) = (   0.3333341   0.0000000   0.0000000), wk =   0.4444444
        k(    4) = (   0.3333341   0.2438396   0.0000000), wk =   0.8888889

     Dense  grid:   210637 G-vectors     FFT dimensions: (  48,  64, 150)

     Estimated max dynamical RAM per process >      39.51 MB

     Estimated total dynamical RAM >     632.12 MB

     Initial potential from superposition of free atoms

     starting charge  111.99579, renormalised to  112.00000
     Starting wfcs are   80 randomized atomic wfcs

     total cpu time spent up to now is     1018.9 secs

     Self-consistent Calculation

     iteration #  1     ecut=   110.00 Ry     beta= 0.70
     Davidson diagonalization with overlap
     ethr =  1.00E-06,  avg # of iterations =  7.8

     total cpu time spent up to now is     1072.9 secs

     total energy              =    -917.39234574 Ry
     Harris-Foulkes estimate   =    -923.51345533 Ry
     estimated scf accuracy    <       7.68272714 Ry

     iteration #  2     ecut=   110.00 Ry     beta= 0.70
     Davidson diagonalization with overlap
     ethr =  6.86E-03,  avg # of iterations =  6.2

     total cpu time spent up to now is     1138.0 secs

     total energy              =    -907.72444834 Ry
     Harris-Foulkes estimate   =    -938.67070414 Ry
     estimated scf accuracy    <     141.49069478 Ry

     iteration #  3     ecut=   110.00 Ry     beta= 0.70
     Davidson diagonalization with overlap
     ethr =  6.86E-03,  avg # of iterations =  5.2

     total cpu time spent up to now is     1223.4 secs

     total energy              =    -921.70578188 Ry
     Harris-Foulkes estimate   =    -922.62209278 Ry
     estimated scf accuracy    <       2.99372175 Ry

     iteration #  4     ecut=   110.00 Ry     beta= 0.70
     Davidson diagonalization with overlap
     ethr =  2.67E-03,  avg # of iterations =  4.0

     total cpu time spent up to now is     1283.5 secs

     total energy              =    -921.94874908 Ry
     Harris-Foulkes estimate   =    -922.09157767 Ry
     estimated scf accuracy    <       0.86296643 Ry

     iteration #  5     ecut=   110.00 Ry     beta= 0.70
     Davidson diagonalization with overlap
     ethr =  7.71E-04,  avg # of iterations =  3.8

     total cpu time spent up to now is     1362.3 secs

     total energy              =    -921.88277568 Ry
     Harris-Foulkes estimate   =    -922.01145398 Ry
     estimated scf accuracy    <       0.46657194 Ry

     iteration #  6     ecut=   110.00 Ry     beta= 0.70
     Davidson diagonalization with overlap
     ethr =  4.17E-04,  avg # of iterations =  4.5

     total cpu time spent up to now is     1684.4 secs

     total energy              =    -922.01326782 Ry
     Harris-Foulkes estimate   =    -922.02209114 Ry
     estimated scf accuracy    <       0.15301586 Ry

     iteration #  7     ecut=   110.00 Ry     beta= 0.70
     Davidson diagonalization with overlap
     ethr =  1.37E-04,  avg # of iterations =  2.2

     total cpu time spent up to now is     1980.1 secs

     total energy              =    -921.98946960 Ry
     Harris-Foulkes estimate   =    -922.01603786 Ry
     estimated scf accuracy    <       0.13539413 Ry

     iteration #  8     ecut=   110.00 Ry     beta= 0.70
     Davidson diagonalization with overlap
     ethr =  1.21E-04,  avg # of iterations =  3.5

     total cpu time spent up to now is     2276.5 secs

     total energy              =    -921.99371498 Ry
     Harris-Foulkes estimate   =    -921.99955769 Ry
     estimated scf accuracy    <       0.02635354 Ry

     iteration #  9     ecut=   110.00 Ry     beta= 0.70
     Davidson diagonalization with overlap
     ethr =  2.35E-05,  avg # of iterations =  4.2

     total cpu time spent up to now is     2655.8 secs

     total energy              =    -922.00229721 Ry
     Harris-Foulkes estimate   =    -922.00392307 Ry
     estimated scf accuracy    <       0.00785278 Ry

     iteration # 10     ecut=   110.00 Ry     beta= 0.70
     Davidson diagonalization with overlap
     ethr =  7.01E-06,  avg # of iterations =  2.5

     total cpu time spent up to now is     2944.4 secs

     total energy              =    -922.00180042 Ry
     Harris-Foulkes estimate   =    -922.00260222 Ry
     estimated scf accuracy    <       0.00332834 Ry

     iteration # 11     ecut=   110.00 Ry     beta= 0.70
     Davidson diagonalization with overlap
     ethr =  2.97E-06,  avg # of iterations =  4.2

     total cpu time spent up to now is     3374.9 secs

     total energy              =    -922.00274622 Ry
     Harris-Foulkes estimate   =    -922.00312721 Ry
     estimated scf accuracy    <       0.00211178 Ry

     iteration # 12     ecut=   110.00 Ry     beta= 0.70
     Davidson diagonalization with overlap
     ethr =  1.89E-06,  avg # of iterations =  1.0

     total cpu time spent up to now is     3686.0 secs

     total energy              =    -922.00271921 Ry
     Harris-Foulkes estimate   =    -922.00280626 Ry
     estimated scf accuracy    <       0.00098469 Ry

     iteration # 13     ecut=   110.00 Ry     beta= 0.70
     Davidson diagonalization with overlap
     ethr =  8.79E-07,  avg # of iterations =  4.0

     total cpu time spent up to now is     3982.5 secs

     total energy              =    -922.00281684 Ry
     Harris-Foulkes estimate   =    -922.00283347 Ry
     estimated scf accuracy    <       0.00011645 Ry

     iteration # 14     ecut=   110.00 Ry     beta= 0.70
     Davidson diagonalization with overlap
     ethr =  1.04E-07,  avg # of iterations =  5.0

     total cpu time spent up to now is     4122.2 secs

     total energy              =    -922.00288291 Ry
     Harris-Foulkes estimate   =    -922.00288734 Ry
     estimated scf accuracy    <       0.00004716 Ry

     iteration # 15     ecut=   110.00 Ry     beta= 0.70
     Davidson diagonalization with overlap
     ethr =  4.21E-08,  avg # of iterations =  1.0

     total cpu time spent up to now is     4247.3 secs

     total energy              =    -922.00287290 Ry
     Harris-Foulkes estimate   =    -922.00288350 Ry
     estimated scf accuracy    <       0.00003685 Ry

     iteration # 16     ecut=   110.00 Ry     beta= 0.70
     Davidson diagonalization with overlap
     ethr =  3.29E-08,  avg # of iterations =  4.0

     total cpu time spent up to now is     4346.5 secs

     total energy              =    -922.00287921 Ry
     Harris-Foulkes estimate   =    -922.00287943 Ry
     estimated scf accuracy    <       0.00000040 Ry

     iteration # 17     ecut=   110.00 Ry     beta= 0.70
     Davidson diagonalization with overlap
     ethr =  3.55E-10,  avg # of iterations =  5.2

     total cpu time spent up to now is     4528.8 secs

     total energy              =    -922.00287967 Ry
     Harris-Foulkes estimate   =    -922.00287976 Ry
     estimated scf accuracy    <       0.00000039 Ry

     iteration # 18     ecut=   110.00 Ry     beta= 0.70
     Davidson diagonalization with overlap
     ethr =  3.50E-10,  avg # of iterations =  2.2

     total cpu time spent up to now is     4530.4 secs

     total energy              =    -922.00287966 Ry
     Harris-Foulkes estimate   =    -922.00287969 Ry
     estimated scf accuracy    <       0.00000015 Ry

     iteration # 19     ecut=   110.00 Ry     beta= 0.70
     Davidson diagonalization with overlap
     ethr =  1.30E-10,  avg # of iterations =  4.0

     total cpu time spent up to now is     4553.1 secs

     total energy              =    -922.00287970 Ry
     Harris-Foulkes estimate   =    -922.00287971 Ry
     estimated scf accuracy    <       0.00000004 Ry

     iteration # 20     ecut=   110.00 Ry     beta= 0.70
     Davidson diagonalization with overlap
     ethr =  3.88E-11,  avg # of iterations =  2.0

     total cpu time spent up to now is     4578.0 secs

     total energy              =    -922.00287970 Ry
     Harris-Foulkes estimate   =    -922.00287970 Ry
     estimated scf accuracy    <       0.00000003 Ry

     iteration # 21     ecut=   110.00 Ry     beta= 0.70
     Davidson diagonalization with overlap
     ethr =  2.41E-11,  avg # of iterations =  4.5

     total cpu time spent up to now is     4746.6 secs

     total energy              =    -922.00287970 Ry
     Harris-Foulkes estimate   =    -922.00287970 Ry
     estimated scf accuracy    <          3.3E-09 Ry

     iteration # 22     ecut=   110.00 Ry     beta= 0.70
     Davidson diagonalization with overlap
     ethr =  2.91E-12,  avg # of iterations =  3.8

     total cpu time spent up to now is     4948.2 secs

     total energy              =    -922.00287970 Ry
     Harris-Foulkes estimate   =    -922.00287970 Ry
     estimated scf accuracy    <          6.0E-09 Ry

     iteration # 23     ecut=   110.00 Ry     beta= 0.70
     Davidson diagonalization with overlap
     ethr =  2.91E-12,  avg # of iterations =  1.0

     total cpu time spent up to now is     5111.5 secs

     total energy              =    -922.00287970 Ry
     Harris-Foulkes estimate   =    -922.00287970 Ry
     estimated scf accuracy    <          5.7E-09 Ry

     iteration # 24     ecut=   110.00 Ry     beta= 0.70
     Davidson diagonalization with overlap
     ethr =  2.91E-12,  avg # of iterations =  3.0

     total cpu time spent up to now is     5314.1 secs

     total energy              =    -922.00287970 Ry
     Harris-Foulkes estimate   =    -922.00287970 Ry
     estimated scf accuracy    <          2.2E-09 Ry

     iteration # 25     ecut=   110.00 Ry     beta= 0.70
     Davidson diagonalization with overlap
     ethr =  1.97E-12,  avg # of iterations =  3.8

     total cpu time spent up to now is     5505.7 secs

     total energy              =    -922.00287970 Ry
     Harris-Foulkes estimate   =    -922.00287970 Ry
     estimated scf accuracy    <          6.6E-10 Ry

     iteration # 26     ecut=   110.00 Ry     beta= 0.70
     Davidson diagonalization with overlap
     ethr =  5.93E-13,  avg # of iterations =  4.2

     total cpu time spent up to now is     5791.0 secs

     total energy              =    -922.00287970 Ry
     Harris-Foulkes estimate   =    -922.00287970 Ry
     estimated scf accuracy    <          1.6E-10 Ry

     iteration # 27     ecut=   110.00 Ry     beta= 0.70
     Davidson diagonalization with overlap
     ethr =  1.46E-13,  avg # of iterations =  2.0

     total cpu time spent up to now is     5995.7 secs

     total energy              =    -922.00287970 Ry
     Harris-Foulkes estimate   =    -922.00287970 Ry
     estimated scf accuracy    <          1.4E-10 Ry

     iteration # 28     ecut=   110.00 Ry     beta= 0.70
     Davidson diagonalization with overlap
     ethr =  1.21E-13,  avg # of iterations =  4.0

     total cpu time spent up to now is     6263.1 secs

     total energy              =    -922.00287970 Ry
     Harris-Foulkes estimate   =    -922.00287970 Ry
     estimated scf accuracy    <          5.8E-11 Ry

     iteration # 29     ecut=   110.00 Ry     beta= 0.70
     Davidson diagonalization with overlap
     ethr =  1.00E-13,  avg # of iterations =  1.0

     total cpu time spent up to now is     6406.1 secs

     total energy              =    -922.00287970 Ry
     Harris-Foulkes estimate   =    -922.00287970 Ry
     estimated scf accuracy    <          2.5E-11 Ry

     iteration # 30     ecut=   110.00 Ry     beta= 0.70
     Davidson diagonalization with overlap
     ethr =  1.00E-13,  avg # of iterations =  4.0

     total cpu time spent up to now is     6660.7 secs

     total energy              =    -922.00287970 Ry
     Harris-Foulkes estimate   =    -922.00287970 Ry
     estimated scf accuracy    <          1.3E-11 Ry

     iteration # 31     ecut=   110.00 Ry     beta= 0.70
     Davidson diagonalization with overlap
     ethr =  1.00E-13,  avg # of iterations =  1.0

     total cpu time spent up to now is     6846.5 secs

     total energy              =    -922.00287970 Ry
     Harris-Foulkes estimate   =    -922.00287970 Ry
     estimated scf accuracy    <          4.3E-12 Ry

     iteration # 32     ecut=   110.00 Ry     beta= 0.70
     Davidson diagonalization with overlap
     ethr =  1.00E-13,  avg # of iterations =  1.0

     total cpu time spent up to now is     6979.5 secs

     total energy              =    -922.00287970 Ry
     Harris-Foulkes estimate   =    -922.00287970 Ry
     estimated scf accuracy    <          1.5E-12 Ry

     iteration # 33     ecut=   110.00 Ry     beta= 0.70
     Davidson diagonalization with overlap
     ethr =  1.00E-13,  avg # of iterations =  1.0

     total cpu time spent up to now is     7203.1 secs

     total energy              =    -922.00287970 Ry
     Harris-Foulkes estimate   =    -922.00287970 Ry
     estimated scf accuracy    <          2.0E-12 Ry

     iteration # 34     ecut=   110.00 Ry     beta= 0.70
     Davidson diagonalization with overlap
     ethr =  1.00E-13,  avg # of iterations =  1.0

     total cpu time spent up to now is     7313.3 secs

     total energy              =    -922.00287970 Ry
     Harris-Foulkes estimate   =    -922.00287970 Ry
     estimated scf accuracy    <          1.6E-12 Ry

     iteration # 35     ecut=   110.00 Ry     beta= 0.70
     Davidson diagonalization with overlap
     ethr =  1.00E-13,  avg # of iterations =  1.0

     total cpu time spent up to now is     7427.9 secs

     total energy              =    -922.00287970 Ry
     Harris-Foulkes estimate   =    -922.00287970 Ry
     estimated scf accuracy    <          1.4E-12 Ry

     iteration # 36     ecut=   110.00 Ry     beta= 0.70
     Davidson diagonalization with overlap
     ethr =  1.00E-13,  avg # of iterations =  1.0

     total cpu time spent up to now is     7543.1 secs

     total energy              =    -922.00287970 Ry
     Harris-Foulkes estimate   =    -922.00287970 Ry
     estimated scf accuracy    <          1.5E-12 Ry

     iteration # 37     ecut=   110.00 Ry     beta= 0.70
     Davidson diagonalization with overlap
     ethr =  1.00E-13,  avg # of iterations =  1.0

     total cpu time spent up to now is     7689.4 secs

     End of self-consistent calculation

          k = 0.0000 0.0000 0.0000 ( 26325 PWs)   bands (ev):

   -61.0006 -60.9986 -60.9894 -60.9874 -35.0427 -35.0403 -35.0316 -35.0259
   -34.9377 -34.8841 -34.8592 -34.8357 -34.8332 -34.8083 -34.7995 -34.7970
   -14.5275 -14.4111 -13.4337 -13.3340 -13.2600 -13.2035 -12.7869 -12.7696
   -12.6418 -12.6355  -1.4758  -1.4655  -1.2890  -1.2594  -1.0661  -0.7225
    -0.1470   0.0920   0.1960   0.2558   0.5063   0.5735   0.6561   0.7676
     0.7968   0.9375   1.0447   1.2119   1.2181   1.2963   1.3577   1.4086
     1.7159   1.7643   2.0354   2.0630   2.1510   2.2813   2.3752   2.4442

          k = 0.0000 0.2438 0.0000 ( 26335 PWs)   bands (ev):

   -61.0006 -60.9986 -60.9894 -60.9874 -35.0430 -35.0405 -35.0325 -35.0268
   -34.9375 -34.8840 -34.8592 -34.8356 -34.8332 -34.8083 -34.7996 -34.7971
   -14.4980 -14.3866 -13.4137 -13.3281 -13.2581 -13.1937 -12.7964 -12.7722
   -12.6447 -12.6119  -1.4926  -1.4818  -1.3056  -1.2779  -1.1718  -0.7529
    -0.7072  -0.3560  -0.2698  -0.2121   0.3750   0.3892   0.4501   0.8575
     0.8979   1.0594   1.2274   1.2753   1.3975   1.4747   1.5857   1.7182
     1.8895   1.9904   2.0073   2.1164   2.1976   2.3757   2.4519   2.5184

          k = 0.3333 0.0000 0.0000 ( 26364 PWs)   bands (ev):

   -60.9963 -60.9943 -60.9907 -60.9887 -35.0367 -35.0342 -35.0300 -35.0257
   -34.9350 -34.9097 -34.8946 -34.8869 -34.8385 -34.8332 -34.8174 -34.8066
   -13.9687 -13.8412 -13.3480 -13.2316 -13.2084 -13.1634 -12.7248 -12.7124
   -12.6656 -12.6607  -1.9462  -1.8707  -1.1109  -1.0584  -0.9635  -0.6318
    -0.5352  -0.2436  -0.2115   0.0701   0.1019   0.2129   0.5502   0.6487
     0.7127   0.7522   0.7708   0.8635   0.9896   1.0321   1.3005   1.3393
     1.4056   1.7360   2.1093   2.1908   2.2977   2.4810   2.6008   2.6235

          k = 0.3333 0.2438 0.0000 ( 26299 PWs)   bands (ev):

   -60.9963 -60.9943 -60.9907 -60.9887 -35.0371 -35.0346 -35.0307 -35.0264
   -34.9349 -34.9096 -34.8945 -34.8868 -34.8385 -34.8332 -34.8175 -34.8066
   -13.9433 -13.8230 -13.3332 -13.2307 -13.2016 -13.1553 -12.7324 -12.7128
   -12.6548 -12.6280  -1.9456  -1.8708  -1.1431  -1.0907  -1.0330  -0.6794
    -0.6642  -0.5500  -0.3853  -0.1950  -0.1000  -0.0857   0.3725   0.4187
     0.4418   0.5974   0.7007   0.7755   0.8219   1.1937   1.4696   1.6774
     1.8269   1.9401   2.2147   2.4471   2.4574   2.6074   2.6833   2.7188

     highest occupied level (ev):     2.7188

!    total energy              =    -922.00287970 Ry
     Harris-Foulkes estimate   =    -922.00287970 Ry
     estimated scf accuracy    <          4.4E-13 Ry

     The total energy is the sum of the following terms:

     one-electron contribution =    -664.15524125 Ry
     hartree contribution      =     367.16348568 Ry
     xc contribution           =    -173.98656058 Ry
     ewald contribution        =    -451.02456355 Ry

     convergence has been achieved in  37 iterations

     Forces acting on atoms (cartesian axes, Ry/au):

     atom    1 type  1   force =     0.00000000    0.00003060   -0.00000116
     atom    2 type  1   force =     0.00000000   -0.00003060    0.00000116
     atom    3 type  1   force =    -0.00000000   -0.00003060   -0.00000116
     atom    4 type  1   force =     0.00000000    0.00003060    0.00000116
     atom    5 type  2   force =    -0.00000000   -0.00000043    0.00000331
     atom    6 type  2   force =     0.00000000    0.00000043   -0.00000331
     atom    7 type  2   force =     0.00000000    0.00000043    0.00000331
     atom    8 type  2   force =     0.00000000   -0.00000043   -0.00000331
     atom    9 type  2   force =     0.00000000   -0.00002749    0.00000297
     atom   10 type  2   force =     0.00000000    0.00002749   -0.00000297
     atom   11 type  2   force =     0.00000000    0.00002749    0.00000297
     atom   12 type  2   force =     0.00000000   -0.00000074    0.00000000
     atom   13 type  2   force =     0.00000000    0.00000074    0.00000000
     atom   14 type  2   force =     0.00000000   -0.00002749   -0.00000297

     Total force =     0.000083     Total SCF correction =     0.000002


     Computing stress (Cartesian axis) and pressure

          total   stress  (Ry/bohr**3)                   (kbar)     P=    0.01
  -0.00000003   0.00000000   0.00000000         -0.00      0.00      0.00
   0.00000000   0.00000024   0.00000000          0.00      0.04      0.00
   0.00000000   0.00000000   0.00000004          0.00      0.00      0.01


     Writing output data file v2o5.save/

     init_run     :      7.32s CPU      7.44s WALL (       2 calls)
     electrons    :   5298.95s CPU   7644.70s WALL (       5 calls)
     update_pot   :      8.44s CPU      8.45s WALL (       3 calls)
     forces       :     18.93s CPU     24.84s WALL (       5 calls)
     stress       :     22.89s CPU     26.17s WALL (       5 calls)

     Called by init_run:
     wfcinit      :      4.45s CPU      4.56s WALL (       2 calls)
     potinit      :      0.85s CPU      0.85s WALL (       2 calls)
     hinit0       :      1.77s CPU      1.78s WALL (       2 calls)

     Called by electrons:
     c_bands      :   4452.94s CPU   6372.79s WALL (     113 calls)
     sum_band     :    760.27s CPU   1137.98s WALL (     113 calls)
     v_of_rho     :     39.00s CPU     60.26s WALL (     115 calls)
     mix_rho      :     41.74s CPU     64.84s WALL (     113 calls)

     Called by c_bands:
     init_us_2    :      1.96s CPU      2.38s WALL (     952 calls)
     cegterg      :   4432.30s CPU   6345.58s WALL (     452 calls)

     Called by sum_band:

     Called by *egterg:
     h_psi        :   3935.01s CPU   5686.71s WALL (    1975 calls)
     g_psi        :      0.59s CPU      0.88s WALL (    1515 calls)
     cdiaghg      :     76.20s CPU    111.39s WALL (    1943 calls)

     Called by h_psi:
     h_psi:pot    :   3934.27s CPU   5685.65s WALL (    1975 calls)
     h_psi:calbec :    177.33s CPU    228.17s WALL (    1975 calls)
     vloc_psi     :   3712.54s CPU   5407.46s WALL (    1975 calls)
     add_vuspsi   :     44.39s CPU     49.69s WALL (    1975 calls)

     General routines
     calbec       :    189.62s CPU    245.56s WALL (    2075 calls)
     fft          :     45.88s CPU     67.15s WALL (    1276 calls)
     ffts         :      3.61s CPU      4.91s WALL (     113 calls)
     fftw         :   4446.32s CPU   6509.69s WALL (  167736 calls)

     Parallel routines
     fft_scatt_xy :      6.43s CPU      6.98s WALL (  169125 calls)
     fft_scatt_yz :   4465.45s CPU   6546.93s WALL (  169125 calls)

     PWSCF        :      1h30m CPU      2h10m WALL


   This run was terminated on:  14: 7:28  27Oct2024            

=------------------------------------------------------------------------------=
   JOB DONE.
=------------------------------------------------------------------------------=
