
     Program PWSCF v.6.4.1 starts on 10Mar2024 at 18:57:13 

     This program is part of the open-source Quantum ESPRESSO suite
     for quantum simulation of materials; please cite
         "P. Giannozzi et al., J. Phys.:Condens. Matter 21 395502 (2009);
         "P. Giannozzi et al., J. Phys.:Condens. Matter 29 465901 (2017);
          URL http://www.quantum-espresso.org", 
     in publications or presentations arising from this work. More details at
     http://www.quantum-espresso.org/quote

     Parallel version (MPI), running on    16 processors

     MPI processes distributed on     1 nodes
     R & G space division:  proc/nbgrp/npool/nimage =      16
     Reading input from li.vc.in

     Current dimensions of program PWSCF are:
     Max number of different atomic species (ntypx) = 10
     Max number of k-points (npk) =  40000
     Max angular momentum in pseudopotentials (lmaxx) =  3

     IMPORTANT: XC functional enforced from input :
     Exchange-correlation      = VDW-DF ( 1  4  4  0 1 0)
     Any further DFT definition will be discarded
     Please, verify this is what you really want


     Subspace diagonalization in iterative solution of the eigenvalue problem:
     one sub-group per band group will be used
     ELPA distributed-memory algorithm (size of sub-group:  2*  2 procs)

     Found symmetry operation: I + ( -0.5000 -0.5000 -0.5000)
     This is a supercell, fractional translations are disabled
     Message from routine setup:
     DEPRECATED: symmetry with ibrav=0, use correct ibrav instead

     Parallelization info
     --------------------
     sticks:   dense  smooth     PW     G-vecs:    dense   smooth      PW
     Min          84      34     11                 2318      588     107
     Max          85      35     12                 2321      591     110
     Sum        1353     545    177                37121     9435    1743



     bravais-lattice index     =            0
     lattice parameter (alat)  =       6.4994  a.u.
     unit-cell volume          =     274.5437 (a.u.)^3
     number of atoms/cell      =            2
     number of atomic types    =            1
     number of electrons       =         6.00
     number of Kohn-Sham states=            7
     kinetic-energy cutoff     =      40.0000  Ry
     charge density cutoff     =     400.0000  Ry
     convergence threshold     =      1.0E-06
     mixing beta               =       0.4000
     number of iterations used =            8  plain     mixing
     Exchange-correlation      = VDW-DF ( 1  4  4  0 1 0)
     nstep                     =          500


     celldm(1)=   6.499359  celldm(2)=   0.000000  celldm(3)=   0.000000
     celldm(4)=   0.000000  celldm(5)=   0.000000  celldm(6)=   0.000000

     crystal axes: (cart. coord. in units of alat)
               a(1) = (   1.000000   0.000000   0.000000 )  
               a(2) = (   0.000000   1.000000   0.000000 )  
               a(3) = (   0.000000   0.000000   1.000000 )  

     reciprocal axes: (cart. coord. in units 2 pi/alat)
               b(1) = (  1.000000  0.000000  0.000000 )  
               b(2) = (  0.000000  1.000000  0.000000 )  
               b(3) = (  0.000000  0.000000  1.000000 )  


     PseudoPot. # 1 for Li read from file:
     /home/mpicuntureo/pseudos/Li.pbesol-sl-kjpaw_psl.1.0.0.UPF
     MD5 check sum: eef8ea5bb9be16d4f57185b44daa939b
     Pseudo is Projector augmented-wave, Zval =  3.0
     Generated using "atomic" code by A. Dal Corso v.6.3
     Shape of augmentation charge: PSQ
     Using radial grid of 1017 points,  4 beta functions with: 
                l(1) =   0
                l(2) =   0
                l(3) =   1
                l(4) =   1
     Q(r) pseudized with 0 coefficients 


     vdW kernel table read from file vdW_kernel_table
     MD5 check sum: 8c4337f4b28e1601c069d7ef7b6561bc

     atomic species   valence    mass     pseudopotential
        Li             3.00     6.94100     Li( 1.00)

     48 Sym. Ops., with inversion, found



   Cartesian axes

     site n.     atom                  positions (alat units)
         1           Li  tau(   1) = (   0.0000000   0.0000000   0.0000000  )
         2           Li  tau(   2) = (   0.5000000   0.5000000   0.5000000  )

     number of k points=    20  gaussian smearing, width (Ry)=  0.1000
                       cart. coord. in units 2pi/alat
        k(    1) = (   0.0000000   0.0000000   0.0000000), wk =   0.0092593
        k(    2) = (   0.0000000   0.0000000   0.1666667), wk =   0.0555556
        k(    3) = (   0.0000000   0.0000000   0.3333333), wk =   0.0555556
        k(    4) = (   0.0000000   0.0000000  -0.5000000), wk =   0.0277778
        k(    5) = (   0.0000000   0.1666667   0.1666667), wk =   0.1111111
        k(    6) = (   0.0000000   0.1666667   0.3333333), wk =   0.2222222
        k(    7) = (   0.0000000   0.1666667  -0.5000000), wk =   0.1111111
        k(    8) = (   0.0000000   0.3333333   0.3333333), wk =   0.1111111
        k(    9) = (   0.0000000   0.3333333  -0.5000000), wk =   0.1111111
        k(   10) = (   0.0000000  -0.5000000  -0.5000000), wk =   0.0277778
        k(   11) = (   0.1666667   0.1666667   0.1666667), wk =   0.0740741
        k(   12) = (   0.1666667   0.1666667   0.3333333), wk =   0.2222222
        k(   13) = (   0.1666667   0.1666667  -0.5000000), wk =   0.1111111
        k(   14) = (   0.1666667   0.3333333   0.3333333), wk =   0.2222222
        k(   15) = (   0.1666667   0.3333333  -0.5000000), wk =   0.2222222
        k(   16) = (   0.1666667  -0.5000000  -0.5000000), wk =   0.0555556
        k(   17) = (   0.3333333   0.3333333   0.3333333), wk =   0.0740741
        k(   18) = (   0.3333333   0.3333333  -0.5000000), wk =   0.1111111
        k(   19) = (   0.3333333  -0.5000000  -0.5000000), wk =   0.0555556
        k(   20) = (  -0.5000000  -0.5000000  -0.5000000), wk =   0.0092593

     Dense  grid:    37121 G-vectors     FFT dimensions: (  45,  45,  45)

     Smooth grid:     9435 G-vectors     FFT dimensions: (  27,  27,  27)

     Estimated max dynamical RAM per process >       4.27 MB

     Estimated total dynamical RAM >      68.30 MB

     Initial potential from superposition of free atoms

     starting charge    5.99039, renormalised to    6.00000


     %%%%%%%%%%%%%%%%%%%%%%%%%%%%%%%%%%%%%%%%%%%%%%%%%%%%%%%%%%%%%%%%%%%%%%%%
     %                                                                      %
     % You are using vdW-DF, which was implemented by the Thonhauser group. %
     % Please cite the following two papers that made this development      %
     % possible and the two reviews that describe the various versions:     %
     %                                                                      %
     %   T. Thonhauser et al., PRL 115, 136402 (2015).                      %
     %   T. Thonhauser et al., PRB 76, 125112 (2007).                       %
     %   K. Berland et al., Rep. Prog. Phys. 78, 066501 (2015).             %
     %   D.C. Langreth et al., J. Phys.: Condens. Matter 21, 084203 (2009). %
     %                                                                      %
     %                                                                      %
     % If you are calculating the stress with vdW-DF, please also cite:     %
     %                                                                      %
     %   R. Sabatini et al., J. Phys.: Condens. Matter 24, 424209 (2012).   %
     %                                                                      %
     %%%%%%%%%%%%%%%%%%%%%%%%%%%%%%%%%%%%%%%%%%%%%%%%%%%%%%%%%%%%%%%%%%%%%%%%


     Starting wfcs are   10 randomized atomic wfcs
     Checking if some PAW data can be deallocated... 

     total cpu time spent up to now is        1.3 secs

     Self-consistent Calculation

     iteration #  1     ecut=    40.00 Ry     beta= 0.40
     Davidson diagonalization with overlap
     ethr =  1.00E-02,  avg # of iterations =  2.9

     Threshold (ethr) on eigenvalues was too large:
     Diagonalizing with lowered threshold

     Davidson diagonalization with overlap
     ethr =  6.62E-06,  avg # of iterations =  4.5

     total cpu time spent up to now is        2.5 secs

     total energy              =     -30.46853418 Ry
     Harris-Foulkes estimate   =     -30.46828384 Ry
     estimated scf accuracy    <       0.00034638 Ry

     iteration #  2     ecut=    40.00 Ry     beta= 0.40
     Davidson diagonalization with overlap
     ethr =  5.77E-06,  avg # of iterations =  1.0

     total cpu time spent up to now is        2.9 secs

     total energy              =     -30.46871108 Ry
     Harris-Foulkes estimate   =     -30.46854315 Ry
     estimated scf accuracy    <       0.00013518 Ry

     iteration #  3     ecut=    40.00 Ry     beta= 0.40
     Davidson diagonalization with overlap
     ethr =  2.25E-06,  avg # of iterations =  2.0

     total cpu time spent up to now is        3.4 secs

     End of self-consistent calculation

          k = 0.0000 0.0000 0.0000 (  1189 PWs)   bands (ev):

   -46.4617 -46.4319  -2.6397   6.4494   6.4494   6.4495   8.6411

          k = 0.0000 0.0000 0.1667 (  1181 PWs)   bands (ev):

   -46.4593 -46.4336  -2.3719   4.1927   6.7882   6.7882   8.9942

          k = 0.0000 0.0000 0.3333 (  1193 PWs)   bands (ev):

   -46.4532 -46.4383  -1.5779   1.7044   7.7992   7.7992  10.0531

          k = 0.0000 0.0000-0.5000 (  1166 PWs)   bands (ev):

   -46.4455 -46.4453  -0.2210  -0.2209   9.4594   9.4594   9.4594

          k = 0.0000 0.1667 0.1667 (  1183 PWs)   bands (ev):

   -46.4572 -46.4350  -2.1097   3.8960   5.3225   7.1250  10.6650

          k = 0.0000 0.1667 0.3333 (  1174 PWs)   bands (ev):

   -46.4518 -46.4390  -1.3161   1.8794   5.8947   8.1278   9.6609

          k = 0.0000 0.1667-0.5000 (  1168 PWs)   bands (ev):

   -46.4452 -46.4450   0.0183   0.0183   7.4706   7.4706   9.7621

          k = 0.0000 0.3333 0.3333 (  1155 PWs)   bands (ev):

   -46.4484 -46.4410  -0.5484   1.8533   4.4391   7.1750   9.0948

          k = 0.0000 0.3333-0.5000 (  1172 PWs)   bands (ev):

   -46.4445 -46.4443   0.6581   0.6581   5.2431   5.2432  10.5886

          k = 0.0000-0.5000-0.5000 (  1180 PWs)   bands (ev):

   -46.4441 -46.4439   1.1630   1.1630   4.1898   4.1898  11.2809

          k = 0.1667 0.1667 0.1667 (  1201 PWs)   bands (ev):

   -46.4554 -46.4361  -1.8506   4.2423   4.2423   6.8101  12.2993

          k = 0.1667 0.1667 0.3333 (  1171 PWs)   bands (ev):

   -46.4506 -46.4395  -1.0537   2.1054   5.2791   7.4895   9.3729

          k = 0.1667 0.1667-0.5000 (  1160 PWs)   bands (ev):

   -46.4448 -46.4446   0.2711   0.2711   6.9978   6.9978   8.8074

          k = 0.1667 0.3333 0.3333 (  1171 PWs)   bands (ev):

   -46.4476 -46.4412  -0.2787   2.2014   4.2239   7.2616   7.9075

          k = 0.1667 0.3333-0.5000 (  1174 PWs)   bands (ev):

   -46.4441 -46.4440   0.9519   0.9519   5.2499   5.2499   9.0646

          k = 0.1667-0.5000-0.5000 (  1180 PWs)   bands (ev):

   -46.4438 -46.4436   1.5116   1.5116   4.2142   4.2142   9.7732

          k = 0.3333 0.3333 0.3333 (  1169 PWs)   bands (ev):

   -46.4456 -46.4418   0.5198   3.2445   3.2445   7.0676   7.3884

          k = 0.3333 0.3333-0.5000 (  1162 PWs)   bands (ev):

   -46.4435 -46.4433   1.7765   1.7765   4.9779   4.9779   7.2081

          k = 0.3333-0.5000-0.5000 (  1156 PWs)   bands (ev):

   -46.4431 -46.4429   2.5562   2.5562   4.2676   4.2676   6.7113

          k =-0.5000-0.5000-0.5000 (  1208 PWs)   bands (ev):

   -46.4428 -46.4426   4.2930   4.2930   4.2930   4.2930   4.2930

     the Fermi energy is     0.8547 ev

!    total energy              =     -30.46874064 Ry
     Harris-Foulkes estimate   =     -30.46873873 Ry
     estimated scf accuracy    <       0.00000038 Ry

     total all-electron energy =       -30.468744 Ry

     The total energy is the sum of the following terms:

     one-electron contribution =     -21.14626396 Ry
     hartree contribution      =       8.18834720 Ry
     xc contribution           =      -7.51608790 Ry
     ewald contribution        =     -10.07887176 Ry
     one-center paw contrib.   =       0.14112626 Ry
     smearing contrib. (-TS)   =      -0.05699048 Ry

     convergence has been achieved in   3 iterations

     Forces acting on atoms (cartesian axes, Ry/au):

     atom    1 type  1   force =     0.00000000    0.00000000    0.00000000
     atom    2 type  1   force =     0.00000000    0.00000000    0.00000000

     Total force =     0.000000     Total SCF correction =     0.000000


     Computing stress (Cartesian axis) and pressure

          total   stress  (Ry/bohr**3)                   (kbar)     P=   -3.53
  -0.00002402   0.00000000   0.00000000         -3.53      0.00      0.00
   0.00000000  -0.00002402   0.00000000          0.00     -3.53      0.00
   0.00000000   0.00000000  -0.00002402          0.00      0.00     -3.53


     BFGS Geometry Optimization

     number of scf cycles    =   1
     number of bfgs steps    =   0

     enthalpy new            =     -30.4687406440 Ry

     new trust radius        =       0.0019903194 bohr
     new conv_thr            =       0.0000010000 Ry

     new unit-cell volume =    274.04934 a.u.^3 (    40.60992 Ang^3 )
     density =      0.56763 g/cm^3

CELL_PARAMETERS (angstrom)
   3.437246794   0.000000000   0.000000000
   0.000000000   3.437246794   0.000000000
   0.000000000   0.000000000   3.437246794

ATOMIC_POSITIONS (angstrom)
Li       0.000000000   0.000000000   0.000000000
Li       1.718623397   1.718623397   1.718623397



     Writing output data file lithium.save/
     NEW-OLD atomic charge density approx. for the potential
     extrapolated charge    5.98919, renormalised to    6.00000

     total cpu time spent up to now is        4.2 secs

     Self-consistent Calculation

     iteration #  1     ecut=    40.00 Ry     beta= 0.40
     Davidson diagonalization with overlap
     ethr =  1.00E-06,  avg # of iterations =  2.0

     Threshold (ethr) on eigenvalues was too large:
     Diagonalizing with lowered threshold

     Davidson diagonalization with overlap
     ethr =  2.34E-08,  avg # of iterations =  1.1

     total cpu time spent up to now is        4.9 secs

     total energy              =     -30.46874693 Ry
     Harris-Foulkes estimate   =     -30.48092721 Ry
     estimated scf accuracy    <       0.00000141 Ry

     iteration #  2     ecut=    40.00 Ry     beta= 0.40
     Davidson diagonalization with overlap
     ethr =  2.35E-08,  avg # of iterations =  3.0

     total cpu time spent up to now is        5.5 secs

     End of self-consistent calculation

          k = 0.0000 0.0000 0.0000 (  1189 PWs)   bands (ev):

   -46.4428 -46.4129  -2.6365   6.4654   6.4654   6.4654   8.6500

          k = 0.0000 0.0000 0.1668 (  1181 PWs)   bands (ev):

   -46.4404 -46.4145  -2.3685   4.2029   6.8046   6.8046   9.0035

          k = 0.0000 0.0000 0.3335 (  1193 PWs)   bands (ev):

   -46.4343 -46.4193  -1.5739   1.7115   7.8169   7.8169  10.0637

          k = 0.0000 0.0000-0.5003 (  1166 PWs)   bands (ev):

   -46.4265 -46.4264  -0.2159  -0.2158   9.4795   9.4795   9.4795

          k = 0.0000 0.1668 0.1668 (  1183 PWs)   bands (ev):

   -46.4384 -46.4159  -2.1062   3.9053   5.3351   7.1419  10.6796

          k = 0.0000 0.1668 0.3335 (  1174 PWs)   bands (ev):

   -46.4329 -46.4200  -1.3120   1.8864   5.9079   8.1461   9.6794

          k = 0.0000 0.1668-0.5003 (  1168 PWs)   bands (ev):

   -46.4261 -46.4260   0.0235   0.0236   7.4859   7.4859   9.7828

          k = 0.0000 0.3335 0.3335 (  1155 PWs)   bands (ev):

   -46.4295 -46.4220  -0.5438   1.8595   4.4512   7.1900   9.1145

          k = 0.0000 0.3335-0.5003 (  1172 PWs)   bands (ev):

   -46.4254 -46.4254   0.6635   0.6635   5.2560   5.2561  10.6111

          k = 0.0000-0.5003-0.5003 (  1180 PWs)   bands (ev):

   -46.4251 -46.4250   1.1683   1.1683   4.2022   4.2022  11.3056

          k = 0.1668 0.1668 0.1668 (  1201 PWs)   bands (ev):

   -46.4365 -46.4171  -1.8468   4.2520   4.2520   6.8279  12.3206

          k = 0.1668 0.1668 0.3335 (  1171 PWs)   bands (ev):

   -46.4317 -46.4205  -1.0494   2.1125   5.2901   7.5083   9.3896

          k = 0.1668 0.1668-0.5003 (  1160 PWs)   bands (ev):

   -46.4258 -46.4257   0.2765   0.2765   7.0111   7.0111   8.8277

          k = 0.1668 0.3335 0.3335 (  1171 PWs)   bands (ev):

   -46.4286 -46.4222  -0.2739   2.2081   4.2345   7.2760   7.9265

          k = 0.1668 0.3335-0.5003 (  1174 PWs)   bands (ev):

   -46.4251 -46.4250   0.9576   0.9576   5.2619   5.2619   9.0838

          k = 0.1668-0.5003-0.5003 (  1180 PWs)   bands (ev):

   -46.4248 -46.4247   1.5173   1.5173   4.2259   4.2259   9.7897

          k = 0.3335 0.3335 0.3335 (  1169 PWs)   bands (ev):

   -46.4266 -46.4228   0.5253   3.2525   3.2525   7.0856   7.4018

          k = 0.3335 0.3335-0.5003 (  1162 PWs)   bands (ev):

   -46.4244 -46.4243   1.7830   1.7830   4.9881   4.9881   7.2233

          k = 0.3335-0.5003-0.5003 (  1156 PWs)   bands (ev):

   -46.4241 -46.4240   2.5633   2.5633   4.2777   4.2778   6.7237

          k =-0.5003-0.5003-0.5003 (  1208 PWs)   bands (ev):

   -46.4238 -46.4237   4.3022   4.3022   4.3022   4.3022   4.3022

     the Fermi energy is     0.8605 ev

!    total energy              =     -30.46875234 Ry
     Harris-Foulkes estimate   =     -30.46875244 Ry
     estimated scf accuracy    <       0.00000025 Ry

     total all-electron energy =       -30.468755 Ry

     The total energy is the sum of the following terms:

     one-electron contribution =     -21.13678838 Ry
     hartree contribution      =       8.18541443 Ry
     xc contribution           =      -7.51664453 Ry
     ewald contribution        =     -10.08492880 Ry
     one-center paw contrib.   =       0.14114871 Ry
     smearing contrib. (-TS)   =      -0.05695377 Ry

     convergence has been achieved in   2 iterations

     Forces acting on atoms (cartesian axes, Ry/au):

     atom    1 type  1   force =     0.00000000    0.00000000    0.00000000
     atom    2 type  1   force =     0.00000000    0.00000000    0.00000000

     Total force =     0.000000     Total SCF correction =     0.000000


     Computing stress (Cartesian axis) and pressure

          total   stress  (Ry/bohr**3)                   (kbar)     P=   -2.67
  -0.00001812   0.00000000   0.00000000         -2.67      0.00      0.00
   0.00000000  -0.00001812   0.00000000          0.00     -2.67      0.00
   0.00000000   0.00000000  -0.00001812          0.00      0.00     -2.67


     number of scf cycles    =   2
     number of bfgs steps    =   1

     enthalpy old            =     -30.4687406440 Ry
     enthalpy new            =     -30.4687523368 Ry

     CASE: enthalpy_new < enthalpy_old

     new trust radius        =       0.0029845825 bohr
     new conv_thr            =       0.0000000100 Ry

     new unit-cell volume =    273.30888 a.u.^3 (    40.50020 Ang^3 )
     density =      0.56917 g/cm^3

CELL_PARAMETERS (angstrom)
   3.434148305   0.000000000   0.000000000
   0.000000000   3.434148305   0.000000000
   0.000000000   0.000000000   3.434148305

ATOMIC_POSITIONS (angstrom)
Li       0.000000000   0.000000000   0.000000000
Li       1.717074153   1.717074153   1.717074153



     Writing output data file lithium.save/
     NEW-OLD atomic charge density approx. for the potential
     extrapolated charge    5.98377, renormalised to    6.00000

     total cpu time spent up to now is        6.2 secs

     Self-consistent Calculation

     iteration #  1     ecut=    40.00 Ry     beta= 0.40
     Davidson diagonalization with overlap
     ethr =  1.00E-06,  avg # of iterations =  2.0

     Threshold (ethr) on eigenvalues was too large:
     Diagonalizing with lowered threshold

     Davidson diagonalization with overlap
     ethr =  5.30E-08,  avg # of iterations =  1.1

     total cpu time spent up to now is        7.0 secs

     total energy              =     -30.46875410 Ry
     Harris-Foulkes estimate   =     -30.48701225 Ry
     estimated scf accuracy    <       0.00000319 Ry

     iteration #  2     ecut=    40.00 Ry     beta= 0.40
     Davidson diagonalization with overlap
     ethr =  5.31E-08,  avg # of iterations =  3.0

     total cpu time spent up to now is        7.6 secs

     total energy              =     -30.46876623 Ry
     Harris-Foulkes estimate   =     -30.46876641 Ry
     estimated scf accuracy    <       0.00000050 Ry

     iteration #  3     ecut=    40.00 Ry     beta= 0.40
     Davidson diagonalization with overlap
     ethr =  8.38E-09,  avg # of iterations =  1.0

     total cpu time spent up to now is        8.0 secs

     total energy              =     -30.46876612 Ry
     Harris-Foulkes estimate   =     -30.46876623 Ry
     estimated scf accuracy    <       0.00000023 Ry

     iteration #  4     ecut=    40.00 Ry     beta= 0.40
     Davidson diagonalization with overlap
     ethr =  3.89E-09,  avg # of iterations =  1.0

     total cpu time spent up to now is        8.5 secs

     total energy              =     -30.46876612 Ry
     Harris-Foulkes estimate   =     -30.46876613 Ry
     estimated scf accuracy    <       0.00000005 Ry

     iteration #  5     ecut=    40.00 Ry     beta= 0.40
     Davidson diagonalization with overlap
     ethr =  7.82E-10,  avg # of iterations =  1.0

     total cpu time spent up to now is        8.8 secs

     total energy              =     -30.46876610 Ry
     Harris-Foulkes estimate   =     -30.46876612 Ry
     estimated scf accuracy    <       0.00000004 Ry

     iteration #  6     ecut=    40.00 Ry     beta= 0.40
     Davidson diagonalization with overlap
     ethr =  6.75E-10,  avg # of iterations =  2.3

     total cpu time spent up to now is        9.3 secs

     End of self-consistent calculation

          k = 0.0000 0.0000 0.0000 (  1189 PWs)   bands (ev):

   -46.4365 -46.4063  -2.6323   6.4841   6.4841   6.4841   8.6693

          k = 0.0000 0.0000 0.1669 (  1181 PWs)   bands (ev):

   -46.4341 -46.4080  -2.3642   4.2167   6.8240   6.8240   9.0233

          k = 0.0000 0.0000 0.3338 (  1193 PWs)   bands (ev):

   -46.4279 -46.4128  -1.5686   1.7212   7.8382   7.8382  10.0855

          k = 0.0000 0.0000-0.5008 (  1166 PWs)   bands (ev):

   -46.4200 -46.4199  -0.2089  -0.2089   9.5039   9.5039   9.5039

          k = 0.0000 0.1669 0.1669 (  1183 PWs)   bands (ev):

   -46.4320 -46.4094  -2.1015   3.9181   5.3517   7.1619  10.7042

          k = 0.0000 0.1669 0.3338 (  1174 PWs)   bands (ev):

   -46.4265 -46.4135  -1.3065   1.8962   5.9254   8.1680   9.7040

          k = 0.0000 0.1669-0.5008 (  1168 PWs)   bands (ev):

   -46.4197 -46.4196   0.0307   0.0307   7.5063   7.5063   9.8078

          k = 0.0000 0.3338 0.3338 (  1155 PWs)   bands (ev):

   -46.4231 -46.4155  -0.5375   1.8684   4.4673   7.2104   9.1383

          k = 0.0000 0.3338-0.5008 (  1172 PWs)   bands (ev):

   -46.4190 -46.4189   0.6711   0.6711   5.2734   5.2734  10.6379

          k = 0.0000-0.5008-0.5008 (  1180 PWs)   bands (ev):

   -46.4187 -46.4186   1.1759   1.1759   4.2187   4.2187  11.3342

          k = 0.1669 0.1669 0.1669 (  1201 PWs)   bands (ev):

   -46.4302 -46.4106  -1.8418   4.2655   4.2655   6.8491  12.3494

          k = 0.1669 0.1669 0.3338 (  1171 PWs)   bands (ev):

   -46.4253 -46.4140  -1.0436   2.1225   5.3055   7.5310   9.4126

          k = 0.1669 0.1669-0.5008 (  1160 PWs)   bands (ev):

   -46.4193 -46.4192   0.2839   0.2839   7.0297   7.0297   8.8526

          k = 0.1669 0.3338 0.3338 (  1171 PWs)   bands (ev):

   -46.4222 -46.4157  -0.2672   2.2176   4.2491   7.2959   7.9500

          k = 0.1669 0.3338-0.5008 (  1174 PWs)   bands (ev):

   -46.4187 -46.4186   0.9657   0.9657   5.2784   5.2784   9.1083

          k = 0.1669-0.5008-0.5008 (  1180 PWs)   bands (ev):

   -46.4183 -46.4182   1.5255   1.5255   4.2417   4.2417   9.8132

          k = 0.3338 0.3338 0.3338 (  1169 PWs)   bands (ev):

   -46.4202 -46.4164   0.5330   3.2640   3.2640   7.1084   7.4209

          k = 0.3338 0.3338-0.5008 (  1162 PWs)   bands (ev):

   -46.4180 -46.4179   1.7923   1.7923   5.0027   5.0027   7.2440

          k = 0.3338-0.5008-0.5008 (  1156 PWs)   bands (ev):

   -46.4176 -46.4175   2.5734   2.5734   4.2919   4.2920   6.7415

          k =-0.5008-0.5008-0.5008 (  1208 PWs)   bands (ev):

   -46.4173 -46.4172   4.3156   4.3156   4.3156   4.3156   4.3156

     the Fermi energy is     0.8686 ev

!    total energy              =     -30.46876610 Ry
     Harris-Foulkes estimate   =     -30.46876611 Ry
     estimated scf accuracy    <          2.4E-09 Ry

     total all-electron energy =       -30.468769 Ry

     The total energy is the sum of the following terms:

     one-electron contribution =     -21.12329352 Ry
     hartree contribution      =       8.18198249 Ry
     xc contribution           =      -7.51767772 Ry
     ewald contribution        =     -10.09402801 Ry
     one-center paw contrib.   =       0.14114801 Ry
     smearing contrib. (-TS)   =      -0.05689736 Ry

     convergence has been achieved in   6 iterations

     Forces acting on atoms (cartesian axes, Ry/au):

     atom    1 type  1   force =     0.00000000    0.00000000    0.00000000
     atom    2 type  1   force =     0.00000000    0.00000000    0.00000000

     Total force =     0.000000     Total SCF correction =     0.000000


     Computing stress (Cartesian axis) and pressure

          total   stress  (Ry/bohr**3)                   (kbar)     P=   -2.50
  -0.00001698   0.00000000   0.00000000         -2.50      0.00      0.00
   0.00000000  -0.00001698   0.00000000          0.00     -2.50      0.00
   0.00000000   0.00000000  -0.00001698          0.00      0.00     -2.50


     number of scf cycles    =   3
     number of bfgs steps    =   2

     enthalpy old            =     -30.4687523368 Ry
     enthalpy new            =     -30.4687661040 Ry

     CASE: enthalpy_new < enthalpy_old


     WARNING: bfgs curvature condition failed, Theta= 0.922
     new trust radius        =       0.0044748555 bohr
     new conv_thr            =       0.0000000100 Ry

     new unit-cell volume =    272.20070 a.u.^3 (    40.33598 Ang^3 )
     density =      0.57149 g/cm^3

CELL_PARAMETERS (angstrom)
   3.429500572   0.000000000   0.000000000
   0.000000000   3.429500572   0.000000000
   0.000000000   0.000000000   3.429500572

ATOMIC_POSITIONS (angstrom)
Li       0.000000000   0.000000000   0.000000000
Li       1.714750286   1.714750286   1.714750286



     Writing output data file lithium.save/
     NEW-OLD atomic charge density approx. for the potential
     extrapolated charge    5.97561, renormalised to    6.00000

     total cpu time spent up to now is        9.9 secs

     Self-consistent Calculation

     iteration #  1     ecut=    40.00 Ry     beta= 0.40
     Davidson diagonalization with overlap
     ethr =  1.00E-06,  avg # of iterations =  2.0

     total cpu time spent up to now is       10.3 secs

     total energy              =     -30.46875502 Ry
     Harris-Foulkes estimate   =     -30.49611680 Ry
     estimated scf accuracy    <       0.00000653 Ry

     iteration #  2     ecut=    40.00 Ry     beta= 0.40
     Davidson diagonalization with overlap
     ethr =  1.09E-07,  avg # of iterations =  3.0

     total cpu time spent up to now is       10.8 secs

     total energy              =     -30.46878208 Ry
     Harris-Foulkes estimate   =     -30.46878253 Ry
     estimated scf accuracy    <       0.00000128 Ry

     iteration #  3     ecut=    40.00 Ry     beta= 0.40
     Davidson diagonalization with overlap
     ethr =  2.13E-08,  avg # of iterations =  1.0

     total cpu time spent up to now is       11.1 secs

     total energy              =     -30.46878168 Ry
     Harris-Foulkes estimate   =     -30.46878209 Ry
     estimated scf accuracy    <       0.00000061 Ry

     iteration #  4     ecut=    40.00 Ry     beta= 0.40
     Davidson diagonalization with overlap
     ethr =  1.01E-08,  avg # of iterations =  1.4

     total cpu time spent up to now is       11.4 secs

     total energy              =     -30.46878174 Ry
     Harris-Foulkes estimate   =     -30.46878174 Ry
     estimated scf accuracy    <       0.00000002 Ry

     iteration #  5     ecut=    40.00 Ry     beta= 0.40
     Davidson diagonalization with overlap
     ethr =  2.77E-10,  avg # of iterations =  2.4

     total cpu time spent up to now is       11.8 secs

     total energy              =     -30.46878174 Ry
     Harris-Foulkes estimate   =     -30.46878174 Ry
     estimated scf accuracy    <       0.00000001 Ry

     iteration #  6     ecut=    40.00 Ry     beta= 0.40
     Davidson diagonalization with overlap
     ethr =  1.90E-10,  avg # of iterations =  1.4

     total cpu time spent up to now is       12.1 secs

     End of self-consistent calculation

          k = 0.0000 0.0000 0.0000 (  1189 PWs)   bands (ev):

   -46.4161 -46.3853  -2.6256   6.5118   6.5118   6.5118   8.6996

          k = 0.0000 0.0000 0.1671 (  1181 PWs)   bands (ev):

   -46.4136 -46.3871  -2.3572   4.2377   6.8526   6.8526   9.0546

          k = 0.0000 0.0000 0.3343 (  1193 PWs)   bands (ev):

   -46.4073 -46.3920  -1.5602   1.7362   7.8697   7.8697  10.1197

          k = 0.0000 0.0000-0.5014 (  1166 PWs)   bands (ev):

   -46.3993 -46.3992  -0.1981  -0.1981   9.5402   9.5402   9.5402

          k = 0.0000 0.1671 0.1671 (  1183 PWs)   bands (ev):

   -46.4115 -46.3885  -2.0941   3.9375   5.3767   7.1915  10.7421

          k = 0.0000 0.1671 0.3343 (  1174 PWs)   bands (ev):

   -46.4059 -46.3926  -1.2978   1.9111   5.9519   8.2004   9.7411

          k = 0.0000 0.1671-0.5014 (  1168 PWs)   bands (ev):

   -46.3989 -46.3989   0.0418   0.0419   7.5372   7.5372   9.8450

          k = 0.0000 0.3343 0.3343 (  1155 PWs)   bands (ev):

   -46.4024 -46.3947  -0.5277   1.8821   4.4918   7.2412   9.1736

          k = 0.0000 0.3343-0.5014 (  1172 PWs)   bands (ev):

   -46.3982 -46.3982   0.6828   0.6828   5.2998   5.2998  10.6778

          k = 0.0000-0.5014-0.5014 (  1180 PWs)   bands (ev):

   -46.3979 -46.3978   1.1876   1.1876   4.2438   4.2439  11.3767

          k = 0.1671 0.1671 0.1671 (  1201 PWs)   bands (ev):

   -46.4096 -46.3897  -1.8339   4.2859   4.2859   6.8807  12.3929

          k = 0.1671 0.1671 0.3343 (  1171 PWs)   bands (ev):

   -46.4047 -46.3932  -1.0345   2.1378   5.3288   7.5648   9.4474

          k = 0.1671 0.1671-0.5014 (  1160 PWs)   bands (ev):

   -46.3986 -46.3985   0.2955   0.2955   7.0578   7.0578   8.8898

          k = 0.1671 0.3343 0.3343 (  1171 PWs)   bands (ev):

   -46.4015 -46.3949  -0.2568   2.2322   4.2713   7.3261   7.9852

          k = 0.1671 0.3343-0.5014 (  1174 PWs)   bands (ev):

   -46.3979 -46.3978   0.9782   0.9782   5.3035   5.3035   9.1453

          k = 0.1671-0.5014-0.5014 (  1180 PWs)   bands (ev):

   -46.3975 -46.3975   1.5383   1.5383   4.2658   4.2658   9.8490

          k = 0.3343 0.3343 0.3343 (  1169 PWs)   bands (ev):

   -46.3994 -46.3956   0.5450   3.2815   3.2815   7.1427   7.4499

          k = 0.3343 0.3343-0.5014 (  1162 PWs)   bands (ev):

   -46.3972 -46.3971   1.8067   1.8067   5.0251   5.0251   7.2752

          k = 0.3343-0.5014-0.5014 (  1156 PWs)   bands (ev):

   -46.3968 -46.3967   2.5890   2.5890   4.3136   4.3136   6.7686

          k =-0.5014-0.5014-0.5014 (  1208 PWs)   bands (ev):

   -46.3965 -46.3965   4.3360   4.3360   4.3360   4.3360   4.3360

     the Fermi energy is     0.8812 ev

!    total energy              =     -30.46878174 Ry
     Harris-Foulkes estimate   =     -30.46878174 Ry
     estimated scf accuracy    <          1.3E-10 Ry

     total all-electron energy =       -30.468785 Ry

     The total energy is the sum of the following terms:

     one-electron contribution =     -21.10269188 Ry
     hartree contribution      =       8.17623071 Ry
     xc contribution           =      -7.51892264 Ry
     ewald contribution        =     -10.10770765 Ry
     one-center paw contrib.   =       0.14112428 Ry
     smearing contrib. (-TS)   =      -0.05681455 Ry

     convergence has been achieved in   6 iterations

     Forces acting on atoms (cartesian axes, Ry/au):

     atom    1 type  1   force =     0.00000000    0.00000000    0.00000000
     atom    2 type  1   force =     0.00000000    0.00000000    0.00000000

     Total force =     0.000000     Total SCF correction =     0.000000


     Computing stress (Cartesian axis) and pressure

          total   stress  (Ry/bohr**3)                   (kbar)     P=   -1.69
  -0.00001151   0.00000000   0.00000000         -1.69      0.00      0.00
   0.00000000  -0.00001151   0.00000000          0.00     -1.69      0.00
   0.00000000   0.00000000  -0.00001151          0.00      0.00     -1.69


     number of scf cycles    =   4
     number of bfgs steps    =   3

     enthalpy old            =     -30.4687661040 Ry
     enthalpy new            =     -30.4687817380 Ry

     CASE: enthalpy_new < enthalpy_old

     new trust radius        =       0.0067077395 bohr
     new conv_thr            =       0.0000000100 Ry

     new unit-cell volume =    270.54406 a.u.^3 (    40.09049 Ang^3 )
     density =      0.57499 g/cm^3

CELL_PARAMETERS (angstrom)
   3.422528972   0.000000000   0.000000000
   0.000000000   3.422528972   0.000000000
   0.000000000   0.000000000   3.422528972

ATOMIC_POSITIONS (angstrom)
Li       0.000000000   0.000000000   0.000000000
Li       1.711264486   1.711264486   1.711264486



     Writing output data file lithium.save/
     NEW-OLD atomic charge density approx. for the potential
     extrapolated charge    5.96332, renormalised to    6.00000

     total cpu time spent up to now is       12.8 secs

     Self-consistent Calculation

     iteration #  1     ecut=    40.00 Ry     beta= 0.40
     Davidson diagonalization with overlap
     ethr =  1.00E-06,  avg # of iterations =  3.0

     total cpu time spent up to now is       13.2 secs

     total energy              =     -30.46873350 Ry
     Harris-Foulkes estimate   =     -30.50971893 Ry
     estimated scf accuracy    <       0.00001498 Ry

     iteration #  2     ecut=    40.00 Ry     beta= 0.40
     Davidson diagonalization with overlap
     ethr =  2.50E-07,  avg # of iterations =  3.0

     total cpu time spent up to now is       13.7 secs

     total energy              =     -30.46879472 Ry
     Harris-Foulkes estimate   =     -30.46879573 Ry
     estimated scf accuracy    <       0.00000284 Ry

     iteration #  3     ecut=    40.00 Ry     beta= 0.40
     Davidson diagonalization with overlap
     ethr =  4.73E-08,  avg # of iterations =  1.0

     total cpu time spent up to now is       14.0 secs

     total energy              =     -30.46879385 Ry
     Harris-Foulkes estimate   =     -30.46879474 Ry
     estimated scf accuracy    <       0.00000135 Ry

     iteration #  4     ecut=    40.00 Ry     beta= 0.40
     Davidson diagonalization with overlap
     ethr =  2.25E-08,  avg # of iterations =  1.4

     total cpu time spent up to now is       14.3 secs

     total energy              =     -30.46879396 Ry
     Harris-Foulkes estimate   =     -30.46879396 Ry
     estimated scf accuracy    <       0.00000004 Ry

     iteration #  5     ecut=    40.00 Ry     beta= 0.40
     Davidson diagonalization with overlap
     ethr =  7.39E-10,  avg # of iterations =  2.4

     total cpu time spent up to now is       14.6 secs

     total energy              =     -30.46879395 Ry
     Harris-Foulkes estimate   =     -30.46879397 Ry
     estimated scf accuracy    <       0.00000003 Ry

     iteration #  6     ecut=    40.00 Ry     beta= 0.40
     Davidson diagonalization with overlap
     ethr =  4.46E-10,  avg # of iterations =  1.3

     total cpu time spent up to now is       15.0 secs

     End of self-consistent calculation

          k = 0.0000 0.0000 0.0000 (  1189 PWs)   bands (ev):

   -46.3858 -46.3544  -2.6154   6.5535   6.5535   6.5535   8.7454

          k = 0.0000 0.0000 0.1675 (  1181 PWs)   bands (ev):

   -46.3833 -46.3561  -2.3466   4.2692   6.8958   6.8958   9.1019

          k = 0.0000 0.0000 0.3350 (  1193 PWs)   bands (ev):

   -46.3769 -46.3611  -1.5474   1.7588   7.9172   7.9172  10.1713

          k = 0.0000 0.0000-0.5025 (  1166 PWs)   bands (ev):

   -46.3686 -46.3686  -0.1817  -0.1817   9.5948   9.5948   9.5948

          k = 0.0000 0.1675 0.1675 (  1183 PWs)   bands (ev):

   -46.3811 -46.3576  -2.0828   3.9669   5.4145   7.2361  10.7993

          k = 0.0000 0.1675 0.3350 (  1174 PWs)   bands (ev):

   -46.3754 -46.3618  -1.2845   1.9337   5.9919   8.2493   9.7970

          k = 0.0000 0.1675-0.5025 (  1168 PWs)   bands (ev):

   -46.3683 -46.3682   0.0587   0.0587   7.5837   7.5837   9.9010

          k = 0.0000 0.3350 0.3350 (  1155 PWs)   bands (ev):

   -46.3718 -46.3639  -0.5127   1.9027   4.5288   7.2877   9.2268

          k = 0.0000 0.3350-0.5025 (  1172 PWs)   bands (ev):

   -46.3675 -46.3675   0.7006   0.7006   5.3396   5.3396  10.7378

          k = 0.0000-0.5025-0.5025 (  1180 PWs)   bands (ev):

   -46.3672 -46.3671   1.2054   1.2054   4.2818   4.2819  11.4407

          k = 0.1675 0.1675 0.1675 (  1201 PWs)   bands (ev):

   -46.3792 -46.3588  -1.8218   4.3167   4.3167   6.9284  12.4585

          k = 0.1675 0.1675 0.3350 (  1171 PWs)   bands (ev):

   -46.3741 -46.3623  -1.0206   2.1609   5.3639   7.6159   9.5000

          k = 0.1675 0.1675-0.5025 (  1160 PWs)   bands (ev):

   -46.3679 -46.3678   0.3129   0.3130   7.1001   7.1001   8.9460

          k = 0.1675 0.3350 0.3350 (  1171 PWs)   bands (ev):

   -46.3709 -46.3641  -0.2410   2.2544   4.3048   7.3716   8.0382

          k = 0.1675 0.3350-0.5025 (  1174 PWs)   bands (ev):

   -46.3672 -46.3671   0.9971   0.9971   5.3414   5.3414   9.2010

          k = 0.1675-0.5025-0.5025 (  1180 PWs)   bands (ev):

   -46.3668 -46.3668   1.5575   1.5575   4.3022   4.3022   9.9029

          k = 0.3350 0.3350 0.3350 (  1169 PWs)   bands (ev):

   -46.3688 -46.3648   0.5631   3.3079   3.3079   7.1946   7.4937

          k = 0.3350 0.3350-0.5025 (  1162 PWs)   bands (ev):

   -46.3665 -46.3664   1.8284   1.8284   5.0587   5.0587   7.3223

          k = 0.3350-0.5025-0.5025 (  1156 PWs)   bands (ev):

   -46.3661 -46.3660   2.6126   2.6126   4.3463   4.3463   6.8095

          k =-0.5025-0.5025-0.5025 (  1208 PWs)   bands (ev):

   -46.3658 -46.3657   4.3668   4.3668   4.3668   4.3668   4.3668

     the Fermi energy is     0.9002 ev

!    total energy              =     -30.46879396 Ry
     Harris-Foulkes estimate   =     -30.46879395 Ry
     estimated scf accuracy    <          7.9E-11 Ry

     total all-electron energy =       -30.468797 Ry

     The total energy is the sum of the following terms:

     one-electron contribution =     -21.07170243 Ry
     hartree contribution      =       8.16762474 Ry
     xc contribution           =      -7.52081940 Ry
     ewald contribution        =     -10.12829678 Ry
     one-center paw contrib.   =       0.14109067 Ry
     smearing contrib. (-TS)   =      -0.05669076 Ry

     convergence has been achieved in   6 iterations

     Forces acting on atoms (cartesian axes, Ry/au):

     atom    1 type  1   force =     0.00000000    0.00000000    0.00000000
     atom    2 type  1   force =     0.00000000    0.00000000    0.00000000

     Total force =     0.000000     Total SCF correction =     0.000000


     Computing stress (Cartesian axis) and pressure

          total   stress  (Ry/bohr**3)                   (kbar)     P=   -0.50
  -0.00000337   0.00000000   0.00000000         -0.50      0.00      0.00
   0.00000000  -0.00000337   0.00000000          0.00     -0.50      0.00
   0.00000000   0.00000000  -0.00000337          0.00      0.00     -0.50


     bfgs converged in   5 scf cycles and   4 bfgs steps
     (criteria: energy <  1.0E-04 Ry, force <  1.0E-02Ry/Bohr, cell <  5.0E-01kbar)

     End of BFGS Geometry Optimization

     Final enthalpy =     -30.4687939557 Ry
Begin final coordinates
     new unit-cell volume =    270.54406 a.u.^3 (    40.09049 Ang^3 )
     density =      0.57499 g/cm^3

CELL_PARAMETERS (angstrom)
   3.422528972   0.000000000   0.000000000
   0.000000000   3.422528972   0.000000000
   0.000000000   0.000000000   3.422528972

ATOMIC_POSITIONS (angstrom)
Li       0.000000000   0.000000000   0.000000000
Li       1.711264486   1.711264486   1.711264486
End final coordinates



     Writing output data file lithium.save/

     A final scf calculation at the relaxed structure.
     The G-vectors are recalculated for the final unit cell
     Results may differ from those at the preceding step.

     Parallelization info
     --------------------
     sticks:   dense  smooth     PW     G-vecs:    dense   smooth      PW
     Min          82      32     11                 2272      572     107
     Max          83      34     12                 2275      575     110
     Sum        1321     529    177                36377     9171    1743



     bravais-lattice index     =            0
     lattice parameter (alat)  =       6.4994  a.u.
     unit-cell volume          =     270.5441 (a.u.)^3
     number of atoms/cell      =            2
     number of atomic types    =            1
     number of electrons       =         6.00
     number of Kohn-Sham states=            7
     kinetic-energy cutoff     =      40.0000  Ry
     charge density cutoff     =     400.0000  Ry
     convergence threshold     =      1.0E-08
     mixing beta               =       0.4000
     number of iterations used =            8  plain     mixing
     Exchange-correlation      = VDW-DF ( 1  4  4  0 1 0)

     celldm(1)=   6.499359  celldm(2)=   0.000000  celldm(3)=   0.000000
     celldm(4)=   0.000000  celldm(5)=   0.000000  celldm(6)=   0.000000

     crystal axes: (cart. coord. in units of alat)
               a(1) = (   0.995120   0.000000   0.000000 )  
               a(2) = (   0.000000   0.995120   0.000000 )  
               a(3) = (   0.000000   0.000000   0.995120 )  

     reciprocal axes: (cart. coord. in units 2 pi/alat)
               b(1) = (  1.004904  0.000000  0.000000 )  
               b(2) = (  0.000000  1.004904  0.000000 )  
               b(3) = (  0.000000  0.000000  1.004904 )  


     PseudoPot. # 1 for Li read from file:
     /home/mpicuntureo/pseudos/Li.pbesol-sl-kjpaw_psl.1.0.0.UPF
     MD5 check sum: eef8ea5bb9be16d4f57185b44daa939b
     Pseudo is Projector augmented-wave, Zval =  3.0
     Generated using "atomic" code by A. Dal Corso v.6.3
     Shape of augmentation charge: PSQ
     Using radial grid of 1017 points,  4 beta functions with: 
                l(1) =   0
                l(2) =   0
                l(3) =   1
                l(4) =   1
     Q(r) pseudized with 0 coefficients 


     vdW kernel table read from file vdW_kernel_table
     MD5 check sum: 8c4337f4b28e1601c069d7ef7b6561bc

     atomic species   valence    mass     pseudopotential
        Li             3.00     6.94100     Li( 1.00)

     48 Sym. Ops., with inversion, found



   Cartesian axes

     site n.     atom                  positions (alat units)
         1           Li  tau(   1) = (   0.0000000   0.0000000   0.0000000  )
         2           Li  tau(   2) = (   0.4975601   0.4975601   0.4975601  )

     number of k points=    20  gaussian smearing, width (Ry)=  0.1000
                       cart. coord. in units 2pi/alat
        k(    1) = (   0.0000000   0.0000000   0.0000000), wk =   0.0092593
        k(    2) = (   0.0000000   0.0000000   0.1674840), wk =   0.0555556
        k(    3) = (   0.0000000   0.0000000   0.3349679), wk =   0.0555556
        k(    4) = (   0.0000000   0.0000000  -0.5024519), wk =   0.0277778
        k(    5) = (   0.0000000   0.1674840   0.1674840), wk =   0.1111111
        k(    6) = (   0.0000000   0.1674840   0.3349679), wk =   0.2222222
        k(    7) = (   0.0000000   0.1674840  -0.5024519), wk =   0.1111111
        k(    8) = (   0.0000000   0.3349679   0.3349679), wk =   0.1111111
        k(    9) = (   0.0000000   0.3349679  -0.5024519), wk =   0.1111111
        k(   10) = (   0.0000000  -0.5024519  -0.5024519), wk =   0.0277778
        k(   11) = (   0.1674840   0.1674840   0.1674840), wk =   0.0740741
        k(   12) = (   0.1674840   0.1674840   0.3349679), wk =   0.2222222
        k(   13) = (   0.1674840   0.1674840  -0.5024519), wk =   0.1111111
        k(   14) = (   0.1674840   0.3349679   0.3349679), wk =   0.2222222
        k(   15) = (   0.1674840   0.3349679  -0.5024519), wk =   0.2222222
        k(   16) = (   0.1674840  -0.5024519  -0.5024519), wk =   0.0555556
        k(   17) = (   0.3349679   0.3349679   0.3349679), wk =   0.0740741
        k(   18) = (   0.3349679   0.3349679  -0.5024519), wk =   0.1111111
        k(   19) = (   0.3349679  -0.5024519  -0.5024519), wk =   0.0555556
        k(   20) = (  -0.5024519  -0.5024519  -0.5024519), wk =   0.0092593

     Dense  grid:    36377 G-vectors     FFT dimensions: (  45,  45,  45)

     Smooth grid:     9171 G-vectors     FFT dimensions: (  27,  27,  27)

     Estimated max dynamical RAM per process >       4.23 MB

     Estimated total dynamical RAM >      67.70 MB

     Initial potential from superposition of free atoms

     starting charge    5.99039, renormalised to    6.00000
     Starting wfcs are   10 randomized atomic wfcs
     Checking if some PAW data can be deallocated... 

     total cpu time spent up to now is       15.5 secs

     Self-consistent Calculation

     iteration #  1     ecut=    40.00 Ry     beta= 0.40
     Davidson diagonalization with overlap
     ethr =  1.00E-06,  avg # of iterations =  9.2

     total cpu time spent up to now is       16.1 secs

     total energy              =     -30.46837814 Ry
     Harris-Foulkes estimate   =     -30.46813531 Ry
     estimated scf accuracy    <       0.00035895 Ry

     iteration #  2     ecut=    40.00 Ry     beta= 0.40
     Davidson diagonalization with overlap
     ethr =  5.98E-06,  avg # of iterations =  1.0

     total cpu time spent up to now is       16.3 secs

     total energy              =     -30.46855044 Ry
     Harris-Foulkes estimate   =     -30.46838677 Ry
     estimated scf accuracy    <       0.00014000 Ry

     iteration #  3     ecut=    40.00 Ry     beta= 0.40
     Davidson diagonalization with overlap
     ethr =  2.33E-06,  avg # of iterations =  2.0

     total cpu time spent up to now is       16.5 secs

     total energy              =     -30.46857961 Ry
     Harris-Foulkes estimate   =     -30.46857782 Ry
     estimated scf accuracy    <       0.00000034 Ry

     iteration #  4     ecut=    40.00 Ry     beta= 0.40
     Davidson diagonalization with overlap
     ethr =  5.74E-09,  avg # of iterations =  3.5

     total cpu time spent up to now is       16.8 secs

     total energy              =     -30.46858057 Ry
     Harris-Foulkes estimate   =     -30.46858049 Ry
     estimated scf accuracy    <       0.00000003 Ry

     iteration #  5     ecut=    40.00 Ry     beta= 0.40
     Davidson diagonalization with overlap
     ethr =  5.29E-10,  avg # of iterations =  1.9

     total cpu time spent up to now is       17.0 secs

     End of self-consistent calculation

          k = 0.0000 0.0000 0.0000 (  1189 PWs)   bands (ev):

   -46.3867 -46.3553  -2.6158   6.5535   6.5535   6.5535   8.7452

          k = 0.0000 0.0000 0.1675 (  1177 PWs)   bands (ev):

   -46.3842 -46.3570  -2.3469   4.2694   6.8958   6.8958   9.1017

          k = 0.0000 0.0000 0.3350 (  1161 PWs)   bands (ev):

   -46.3777 -46.3620  -1.5432   1.7610   7.9172   7.9172  10.1711

          k = 0.0000 0.0000-0.5025 (  1166 PWs)   bands (ev):

   -46.3696 -46.3694  -0.1820  -0.1819   9.5949   9.5949   9.5949

          k = 0.0000 0.1675 0.1675 (  1147 PWs)   bands (ev):

   -46.3820 -46.3584  -2.0792   3.9668   5.4180   7.2361  10.8031

          k = 0.0000 0.1675 0.3350 (  1156 PWs)   bands (ev):

   -46.3763 -46.3627  -1.2830   1.9348   5.9937   8.2494   9.7980

          k = 0.0000 0.1675-0.5025 (  1160 PWs)   bands (ev):

   -46.3692 -46.3690   0.0593   0.0593   7.5843   7.5843   9.9011

          k = 0.0000 0.3350 0.3350 (  1155 PWs)   bands (ev):

   -46.3727 -46.3648  -0.5130   1.9027   4.5286   7.2875   9.2268

          k = 0.0000 0.3350-0.5025 (  1158 PWs)   bands (ev):

   -46.3684 -46.3683   0.7013   0.7013   5.3417   5.3417  10.7380

          k = 0.0000-0.5025-0.5025 (  1132 PWs)   bands (ev):

   -46.3681 -46.3679   1.2053   1.2053   4.2939   4.2939  11.4410

          k = 0.1675 0.1675 0.1675 (  1165 PWs)   bands (ev):

   -46.3801 -46.3596  -1.8167   4.3166   4.3166   6.9344  12.4586

          k = 0.1675 0.1675 0.3350 (  1159 PWs)   bands (ev):

   -46.3750 -46.3632  -1.0187   2.1612   5.3638   7.6176   9.5000

          k = 0.1675 0.1675-0.5025 (  1160 PWs)   bands (ev):

   -46.3688 -46.3687   0.3127   0.3127   7.1001   7.1001   8.9459

          k = 0.1675 0.3350 0.3350 (  1159 PWs)   bands (ev):

   -46.3718 -46.3650  -0.2395   2.2543   4.3054   7.3728   8.0400

          k = 0.1675 0.3350-0.5025 (  1146 PWs)   bands (ev):

   -46.3681 -46.3679   0.9985   0.9985   5.3443   5.3443   9.2057

          k = 0.1675-0.5025-0.5025 (  1136 PWs)   bands (ev):

   -46.3677 -46.3676   1.5574   1.5574   4.3106   4.3106   9.9029

          k = 0.3350 0.3350 0.3350 (  1166 PWs)   bands (ev):

   -46.3697 -46.3657   0.5630   3.3079   3.3079   7.1964   7.4937

          k = 0.3350 0.3350-0.5025 (  1146 PWs)   bands (ev):

   -46.3674 -46.3672   1.8289   1.8289   5.0587   5.0587   7.3247

          k = 0.3350-0.5025-0.5025 (  1132 PWs)   bands (ev):

   -46.3670 -46.3669   2.6125   2.6125   4.3479   4.3479   6.8095

          k =-0.5025-0.5025-0.5025 (  1088 PWs)   bands (ev):

   -46.3666 -46.3664   4.3667   4.3667   4.3667   4.3667   4.3667

     the Fermi energy is     0.9008 ev

!    total energy              =     -30.46858060 Ry
     Harris-Foulkes estimate   =     -30.46858058 Ry
     estimated scf accuracy    <          2.0E-09 Ry

     total all-electron energy =       -30.468583 Ry

     The total energy is the sum of the following terms:

     one-electron contribution =     -21.07108537 Ry
     hartree contribution      =       8.16699288 Ry
     xc contribution           =      -7.52062067 Ry
     ewald contribution        =     -10.12829678 Ry
     one-center paw contrib.   =       0.14112576 Ry
     smearing contrib. (-TS)   =      -0.05669642 Ry

     convergence has been achieved in   5 iterations

     Forces acting on atoms (cartesian axes, Ry/au):

     atom    1 type  1   force =     0.00000000    0.00000000    0.00000000
     atom    2 type  1   force =     0.00000000    0.00000000    0.00000000

     Total force =     0.000000     Total SCF correction =     0.000000


     Computing stress (Cartesian axis) and pressure

          total   stress  (Ry/bohr**3)                   (kbar)     P=   -1.25
  -0.00000850   0.00000000   0.00000000         -1.25      0.00      0.00
   0.00000000  -0.00000850   0.00000000          0.00     -1.25      0.00
   0.00000000   0.00000000  -0.00000850          0.00      0.00     -1.25


     Writing output data file lithium.save/

     init_run     :      0.72s CPU      0.77s WALL (       2 calls)
     electrons    :     12.09s CPU     12.41s WALL (       6 calls)
     update_pot   :      1.09s CPU      1.14s WALL (       4 calls)
     forces       :      0.36s CPU      0.36s WALL (       6 calls)
     stress       :      1.42s CPU      1.43s WALL (       6 calls)

     Called by init_run:
     wfcinit      :      0.21s CPU      0.22s WALL (       2 calls)
     potinit      :      0.31s CPU      0.33s WALL (       2 calls)
     hinit0       :      0.15s CPU      0.16s WALL (       2 calls)

     Called by electrons:
     c_bands      :      7.39s CPU      7.51s WALL (      31 calls)
     sum_band     :      1.06s CPU      1.07s WALL (      31 calls)
     v_of_rho     :      3.10s CPU      3.21s WALL (      34 calls)
     newd         :      0.16s CPU      0.17s WALL (      34 calls)
     PAW_pot      :      1.15s CPU      1.25s WALL (      38 calls)
     mix_rho      :      0.05s CPU      0.05s WALL (      31 calls)

     Called by c_bands:
     init_us_2    :      0.05s CPU      0.05s WALL (    1600 calls)
     cegterg      :      7.17s CPU      7.29s WALL (     620 calls)

     Called by sum_band:
     sum_band:bec :      0.00s CPU      0.00s WALL (     700 calls)
     addusdens    :      0.07s CPU      0.07s WALL (      31 calls)

     Called by *egterg:
     h_psi        :      4.16s CPU      4.23s WALL (    2039 calls)
     s_psi        :      0.03s CPU      0.03s WALL (    2039 calls)
     g_psi        :      0.01s CPU      0.01s WALL (    1379 calls)
     cdiaghg      :      1.74s CPU      1.76s WALL (    1859 calls)

     Called by h_psi:
     h_psi:pot    :      4.15s CPU      4.22s WALL (    2039 calls)
     h_psi:calbec :      0.35s CPU      0.36s WALL (    2039 calls)
     vloc_psi     :      3.75s CPU      3.82s WALL (    2039 calls)
     add_vuspsi   :      0.04s CPU      0.04s WALL (    2039 calls)

     General routines
     calbec       :      0.56s CPU      0.57s WALL (    3339 calls)
     fft          :      3.02s CPU      3.14s WALL (    2449 calls)
     ffts         :      0.02s CPU      0.02s WALL (      65 calls)
     fftw         :      4.31s CPU      4.38s WALL (   27820 calls)
     interpolate  :      0.06s CPU      0.06s WALL (      34 calls)

     Parallel routines
     fft_scatt_xy :      0.09s CPU      0.09s WALL (   30334 calls)
     fft_scatt_yz :      6.56s CPU      6.75s WALL (   30334 calls)

     PWSCF        :     16.68s CPU     17.28s WALL


   This run was terminated on:  18:57:30  10Mar2024            

=------------------------------------------------------------------------------=
   JOB DONE.
=------------------------------------------------------------------------------=
