
     Program PWSCF v.6.4.1 starts on 13Mar2024 at 20: 3:14 

     This program is part of the open-source Quantum ESPRESSO suite
     for quantum simulation of materials; please cite
         "P. Giannozzi et al., J. Phys.:Condens. Matter 21 395502 (2009);
         "P. Giannozzi et al., J. Phys.:Condens. Matter 29 465901 (2017);
          URL http://www.quantum-espresso.org", 
     in publications or presentations arising from this work. More details at
     http://www.quantum-espresso.org/quote

     Parallel version (MPI), running on    32 processors

     MPI processes distributed on     1 nodes
     R & G space division:  proc/nbgrp/npool/nimage =      32
     Reading input from interface.rlx.in

     Current dimensions of program PWSCF are:
     Max number of different atomic species (ntypx) = 10
     Max number of k-points (npk) =  40000
     Max angular momentum in pseudopotentials (lmaxx) =  3

     IMPORTANT: XC functional enforced from input :
     Exchange-correlation      = VDW-DF ( 1  4  4  0 1 0)
     Any further DFT definition will be discarded
     Please, verify this is what you really want

               file V.pbesol-spnl-kjpaw_psl.1.0.0.UPF: wavefunction(s)  3P 3D renormalized
               file O.pbesol-n-kjpaw_psl.1.0.0.UPF: wavefunction(s)  2S 2P renormalized
               file C.pbesol-n-kjpaw_psl.1.0.0.UPF: wavefunction(s)  2S 2P renormalized

     Subspace diagonalization in iterative solution of the eigenvalue problem:
     one sub-group per band group will be used
     ELPA distributed-memory algorithm (size of sub-group:  4*  4 procs)


     Parallelization info
     --------------------
     sticks:   dense  smooth     PW     G-vecs:    dense   smooth      PW
     Min         426     170     47               119505    30230    4446
     Max         427     171     48               119514    30241    4456
     Sum       13635    5445   1525              3824339   967507  142413



     bravais-lattice index     =            0
     lattice parameter (alat)  =      30.2219  a.u.
     unit-cell volume          =   28307.6739 (a.u.)^3
     number of atoms/cell      =          173
     number of atomic types    =            3
     number of electrons       =      1024.00
     number of Kohn-Sham states=          614
     kinetic-energy cutoff     =      40.0000  Ry
     charge density cutoff     =     400.0000  Ry
     convergence threshold     =      1.0E-06
     mixing beta               =       0.4000
     number of iterations used =            8  local-TF  mixing
     Exchange-correlation      = VDW-DF ( 1  4  4  0 1 0)
     nstep                     =          500


     celldm(1)=  30.221920  celldm(2)=   0.000000  celldm(3)=   0.000000
     celldm(4)=   0.000000  celldm(5)=   0.000000  celldm(6)=   0.000000

     crystal axes: (cart. coord. in units of alat)
               a(1) = (   1.000000   0.000000   0.000000 )  
               a(2) = (  -0.522247   0.468590   0.000000 )  
               a(3) = (   0.000000   0.000000   2.188492 )  

     reciprocal axes: (cart. coord. in units 2 pi/alat)
               b(1) = (  1.000000  1.114507 -0.000000 )  
               b(2) = (  0.000000  2.134061  0.000000 )  
               b(3) = (  0.000000 -0.000000  0.456936 )  


     PseudoPot. # 1 for V  read from file:
     /home/mpicuntureo/pseudos/V.pbesol-spnl-kjpaw_psl.1.0.0.UPF
     MD5 check sum: d709b3179d4cab0f72010db8785d50db
     Pseudo is Projector augmented-wave + core cor, Zval = 13.0
     Generated using "atomic" code by A. Dal Corso v.6.3
     Shape of augmentation charge: PSQ
     Using radial grid of 1181 points,  6 beta functions with: 
                l(1) =   0
                l(2) =   0
                l(3) =   1
                l(4) =   1
                l(5) =   2
                l(6) =   2
     Q(r) pseudized with 0 coefficients 


     PseudoPot. # 2 for O  read from file:
     /home/mpicuntureo/pseudos/O.pbesol-n-kjpaw_psl.1.0.0.UPF
     MD5 check sum: cb766521a97cf798d01896eaf7ac9a0a
     Pseudo is Projector augmented-wave + core cor, Zval =  6.0
     Generated using "atomic" code by A. Dal Corso v.6.3
     Shape of augmentation charge: PSQ
     Using radial grid of 1095 points,  4 beta functions with: 
                l(1) =   0
                l(2) =   0
                l(3) =   1
                l(4) =   1
     Q(r) pseudized with 0 coefficients 


     PseudoPot. # 3 for C  read from file:
     /home/mpicuntureo/pseudos/C.pbesol-n-kjpaw_psl.1.0.0.UPF
     MD5 check sum: f9b2fe17d1f478429498b05d17159f9e
     Pseudo is Projector augmented-wave + core cor, Zval =  4.0
     Generated using "atomic" code by A. Dal Corso v.6.3
     Shape of augmentation charge: PSQ
     Using radial grid of 1073 points,  4 beta functions with: 
                l(1) =   0
                l(2) =   0
                l(3) =   1
                l(4) =   1
     Q(r) pseudized with 0 coefficients 


     vdW kernel table read from file vdW_kernel_table
     MD5 check sum: 8c4337f4b28e1601c069d7ef7b6561bc

     atomic species   valence    mass     pseudopotential
        V             13.00    50.94150     V ( 1.00)
        O              6.00    15.99940     O ( 1.00)
        C              4.00    12.01100     C ( 1.00)

     No symmetry found



   Cartesian axes

     site n.     atom                  positions (alat units)
         1           V   tau(   1) = (   0.2353949   0.0851358   0.4883833  )
         2           V   tau(   2) = (   0.5527945   0.3986297   0.4911447  )
         3           V   tau(   3) = (   0.3945970   0.2414840   0.4889691  )
         4           V   tau(   4) = (  -0.2712113   0.3787373   0.5598093  )
         5           V   tau(   5) = (   0.5696205   0.2220463   0.5596160  )
         6           V   tau(   6) = (   0.4104589   0.0660274   0.5584369  )
         7           V   tau(   7) = (  -0.1117799   0.2462574   0.5579416  )
         8           V   tau(   8) = (   0.7305157   0.0911121   0.5579738  )
         9           V   tau(   9) = (   0.0488503   0.4020194   0.5589318  )
        10           V   tau(  10) = (   0.0707578   0.2188237   0.5532062  )
        11           V   tau(  11) = (   0.9091571   0.0667215   0.4947379  )
        12           V   tau(  12) = (   0.2318845   0.3774856   0.5535280  )
        13           V   tau(  13) = (   0.2325025   0.0879346   0.7689855  )
        14           V   tau(  14) = (   0.5510758   0.4003643   0.7688270  )
        15           V   tau(  15) = (   0.3916839   0.2440253   0.7687185  )
        16           V   tau(  16) = (  -0.2738305   0.3793215   0.8457827  )
        17           V   tau(  17) = (   0.5668909   0.2231498   0.8455931  )
        18           V   tau(  18) = (   0.4076726   0.0669632   0.8458837  )
        19           V   tau(  19) = (  -0.1047959   0.2429442   0.8455997  )
        20           V   tau(  20) = (   0.7359572   0.0866127   0.8459968  )
        21           V   tau(  21) = (   0.0544565   0.3989790   0.8454700  )
        22           V   tau(  22) = (   0.0702992   0.2217956   0.7685995  )
        23           V   tau(  23) = (   0.9110384   0.0656507   0.7689765  )
        24           V   tau(  24) = (   0.2296691   0.3781627   0.7686914  )
        25           O   tau(  25) = (  -0.3544985   0.4633149   0.5232564  )
        26           O   tau(  26) = (   0.4856228   0.3067632   0.5236853  )
        27           O   tau(  27) = (   0.3250443   0.1521631   0.5222891  )
        28           O   tau(  28) = (   0.3185390   0.0025338   0.5239189  )
        29           O   tau(  29) = (   0.6376315   0.3133440   0.5272324  )
        30           O   tau(  30) = (   0.4770245   0.1578317   0.5238874  )
        31           O   tau(  31) = (  -0.0123754   0.3054261   0.5248942  )
        32           O   tau(  32) = (   0.8228600   0.1538658   0.5244620  )
        33           O   tau(  33) = (   0.1464908   0.4609832   0.5244506  )
        34           O   tau(  34) = (  -0.0244579   0.1596225   0.5295601  )
        35           O   tau(  35) = (   0.8167892   0.0032552   0.5305074  )
        36           O   tau(  36) = (   0.1367446   0.3140292   0.5375566  )
        37           O   tau(  37) = (   0.9060962   0.0676091   0.3948635  )
        38           O   tau(  38) = (  -0.1152207   0.2529976   0.6574274  )
        39           O   tau(  39) = (   0.7246299   0.0957832   0.6574525  )
        40           O   tau(  40) = (   0.0438279   0.4086279   0.6584813  )
        41           O   tau(  41) = (  -0.2644138   0.3726156   0.6589261  )
        42           O   tau(  42) = (   0.5748603   0.2141877   0.6587093  )
        43           O   tau(  43) = (   0.4159203   0.0594834   0.6575737  )
        44           O   tau(  44) = (  -0.1894497   0.3137832   0.5175724  )
        45           O   tau(  45) = (   0.6483763   0.1536588   0.5174813  )
        46           O   tau(  46) = (   0.4910710  -0.0014664   0.5181559  )
        47           O   tau(  47) = (   0.1474154   0.1569406   0.5142047  )
        48           O   tau(  48) = (   0.9921526  -0.0010177   0.5196436  )
        49           O   tau(  49) = (   0.3063405   0.3127336   0.5152207  )
        50           O   tau(  50) = (   0.2357360   0.0853679   0.3888338  )
        51           O   tau(  51) = (   0.5535133   0.3983401   0.3914401  )
        52           O   tau(  52) = (   0.3954969   0.2429440   0.3894648  )
        53           O   tau(  53) = (  -0.3565810   0.4636156   0.8012034  )
        54           O   tau(  54) = (   0.4841918   0.3073107   0.8005197  )
        55           O   tau(  55) = (   0.3248773   0.1511856   0.8012010  )
        56           O   tau(  56) = (   0.3139464   0.0045570   0.8126605  )
        57           O   tau(  57) = (   0.6324404   0.3169630   0.8124035  )
        58           O   tau(  58) = (   0.4731592   0.1607095   0.8123933  )
        59           O   tau(  59) = (  -0.0111363   0.3052774   0.8119928  )
        60           O   tau(  60) = (   0.8296559   0.1490236   0.8127146  )
        61           O   tau(  61) = (   0.1482289   0.4614648   0.8124908  )
        62           O   tau(  62) = (  -0.0220847   0.1586144   0.8009513  )
        63           O   tau(  63) = (   0.8187249   0.0023951   0.8012705  )
        64           O   tau(  64) = (   0.1371569   0.3148538   0.8003555  )
        65           O   tau(  65) = (   0.0726588   0.2181978   0.6688811  )
        66           O   tau(  66) = (   0.9131656   0.0623925   0.6692692  )
        67           O   tau(  67) = (   0.2324074   0.3752847   0.6689753  )
        68           O   tau(  68) = (  -0.0992602   0.2386961   0.9444906  )
        69           O   tau(  69) = (   0.7412534   0.0820237   0.9448876  )
        70           O   tau(  70) = (   0.0598981   0.3940172   0.9443349  )
        71           O   tau(  71) = (  -0.2791364   0.3836440   0.9446812  )
        72           O   tau(  72) = (   0.5613292   0.2279103   0.9444599  )
        73           O   tau(  73) = (   0.4023831   0.0715654   0.9447711  )
        74           O   tau(  74) = (  -0.1893586   0.3110922   0.8220318  )
        75           O   tau(  75) = (   0.6514962   0.1548984   0.8223728  )
        76           O   tau(  76) = (  -0.0300476   0.4673268   0.8222934  )
        77           O   tau(  77) = (   0.1513737   0.1549615   0.8058265  )
        78           O   tau(  78) = (   0.4699641   0.4672584   0.8058426  )
        79           O   tau(  79) = (   0.3106791   0.3110950   0.8056847  )
        80           O   tau(  80) = (   0.2302141   0.0910576   0.6692862  )
        81           O   tau(  81) = (   0.5489889   0.4037633   0.6691119  )
        82           O   tau(  82) = (   0.3889933   0.2468491   0.6689980  )
        83           C   tau(  83) = (  -0.1101126   0.3938320   0.2202384  )
        84           C   tau(  84) = (   0.1655143   0.0242004   0.2137221  )
        85           C   tau(  85) = (   0.0754243   0.1485269   0.2158471  )
        86           C   tau(  86) = (   0.0136062   0.0060364   0.2123940  )
        87           C   tau(  87) = (  -0.0085116   0.2732087   0.2165987  )
        88           C   tau(  88) = (  -0.0764335   0.1295973   0.2152582  )
        89           C   tau(  89) = (   0.3387510   0.4548986   0.2161566  )
        90           C   tau(  90) = (  -0.1663179   0.2518950   0.2179795  )
        91           C   tau(  91) = (   0.7715399   0.1101981   0.2221742  )
        92           C   tau(  92) = (   0.1888498   0.4371681   0.2367608  )
        93           C   tau(  93) = (  -0.2626997   0.3725847   0.2159017  )
        94           C   tau(  94) = (   0.6789149   0.2317411   0.2198244  )
        95           C   tau(  95) = (   0.6190711   0.0908133   0.2300889  )
        96           C   tau(  96) = (   0.0396207   0.4164560   0.2376537  )
        97           C   tau(  97) = (   0.5831317   0.3520278   0.2134842  )
        98           C   tau(  98) = (   0.5250269   0.2112714   0.2181621  )
        99           C   tau(  99) = (   0.4673407   0.0693704   0.2231104  )
       100           C   tau( 100) = (   0.4286491   0.3323509   0.2121481  )
       101           C   tau( 101) = (   0.3720664   0.1908255   0.2142992  )
       102           C   tau( 102) = (   0.3164110   0.0472878   0.2171978  )
       103           C   tau( 103) = (   0.2705627   0.3115059   0.2134975  )
       104           C   tau( 104) = (   0.2205988   0.1687555   0.2165210  )
       105           C   tau( 105) = (  -0.2746390   0.4601574   0.2153211  )
       106           C   tau( 106) = (   0.1544975   0.1106561   0.2154881  )
       107           C   tau( 107) = (  -0.4276181   0.4395229   0.2121810  )
       108           C   tau( 108) = (   0.0754448   0.2369512   0.2130734  )
       109           C   tau( 109) = (   0.0041188   0.0947570   0.2145863  )
       110           C   tau( 110) = (   0.4202108   0.4206446   0.2121408  )
       111           C   tau( 111) = (  -0.0828155   0.2182653   0.2163511  )
       112           C   tau( 112) = (   0.8522802   0.0752760   0.2177843  )
       113           C   tau( 113) = (   0.2678925   0.4008521   0.2217807  )
       114           C   tau( 114) = (  -0.1801655   0.3393363   0.2172446  )
       115           C   tau( 115) = (   0.7617628   0.1982911   0.2200764  )
       116           C   tau( 116) = (   0.7007344   0.0572275   0.2301798  )
       117           C   tau( 117) = (  -0.3338806   0.3189823   0.2160371  )
       118           C   tau( 118) = (   0.6076459   0.1782819   0.2227541  )
       119           C   tau( 119) = (   0.5492411   0.0365626   0.2307705  )
       120           C   tau( 120) = (   0.5117410   0.2986453   0.2140182  )
       121           C   tau( 121) = (   0.4548116   0.1572538   0.2180536  )
       122           C   tau( 122) = (   0.3985267   0.0137207   0.2207549  )
       123           C   tau( 123) = (   0.3561256   0.2782125   0.2120072  )
       124           C   tau( 124) = (   0.3034220   0.1358417   0.2162551  )
       125           C   tau( 125) = (   0.1978646   0.2542821   0.2129537  )
       126           C   tau( 126) = (   0.1195096   0.3892542   0.2563101  )
       127           C   tau( 127) = (  -0.0277692   0.3603883   0.2248235  )
       128           C   tau( 128) = (   0.2392793   0.0735151   0.0036225  )
       129           C   tau( 129) = (  -0.0046853   0.1753722   0.0033987  )
       130           C   tau( 130) = (  -0.0974521   0.2976166   0.0050610  )
       131           C   tau( 131) = (  -0.1558987   0.1549970   0.0044484  )
       132           C   tau( 132) = (  -0.1902157   0.4198619   0.0052081  )
       133           C   tau( 133) = (  -0.2486605   0.2772454   0.0054535  )
       134           C   tau( 134) = (   0.6928925   0.1346327   0.0053067  )
       135           C   tau( 135) = (  -0.3414218   0.3994928   0.0043428  )
       136           C   tau( 136) = (   0.6001313   0.2568742   0.0050199  )
       137           C   tau( 137) = (   0.5416822   0.1142608   0.0053905  )
       138           C   tau( 138) = (   0.0880737   0.0531410   0.0029181  )
       139           C   tau( 139) = (   0.5073788   0.3791151   0.0033519  )
       140           C   tau( 140) = (   0.4489277   0.2364951   0.0040049  )
       141           C   tau( 141) = (   0.3904760   0.0938923   0.0046640  )
       142           C   tau( 142) = (   0.9368664   0.0327632   0.0029695  )
       143           C   tau( 143) = (   0.3561736   0.3587417   0.0028596  )
       144           C   tau( 144) = (   0.2977273   0.2161214   0.0030791  )
       145           C   tau( 145) = (   0.7856602   0.0123849   0.0037320  )
       146           C   tau( 146) = (   0.2049692   0.3383661   0.0031253  )
       147           C   tau( 147) = (   0.1465177   0.1957511   0.0028386  )
       148           C   tau( 148) = (   0.1122044   0.4606027   0.0047714  )
       149           C   tau( 149) = (   0.0537541   0.3179868   0.0040646  )
       150           C   tau( 150) = (  -0.0390008   0.4402315   0.0053986  )
       151           C   tau( 151) = (   0.0767125   0.1412918   0.0029025  )
       152           C   tau( 152) = (  -0.0160446   0.2635267   0.0042056  )
       153           C   tau( 153) = (  -0.0744916   0.1209104   0.0035548  )
       154           C   tau( 154) = (  -0.1088163   0.3857677   0.0054510  )
       155           C   tau( 155) = (  -0.1672624   0.2431502   0.0051703  )
       156           C   tau( 156) = (   0.7742987   0.1005341   0.0046076  )
       157           C   tau( 157) = (  -0.2600186   0.3654016   0.0051679  )
       158           C   tau( 158) = (   0.6815276   0.2227829   0.0054823  )
       159           C   tau( 159) = (   0.6230866   0.0801569   0.0053855  )
       160           C   tau( 160) = (   0.1694752   0.0190522   0.0035694  )
       161           C   tau( 161) = (   0.5887732   0.3450252   0.0042687  )
       162           C   tau( 162) = (   0.5303207   0.2024204   0.0049373  )
       163           C   tau( 163) = (  -0.5039731   0.4672744   0.0029347  )
       164           C   tau( 164) = (   0.4375794   0.3246495   0.0032919  )
       165           C   tau( 165) = (   0.3791238   0.1820402   0.0038870  )
       166           C   tau( 166) = (   0.3448174   0.4468978   0.0030656  )
       167           C   tau( 167) = (   0.2863724   0.3042763   0.0028493  )
       168           C   tau( 168) = (   0.2279286   0.1616659   0.0030407  )
       169           C   tau( 169) = (   0.1936091   0.4265169   0.0038764  )
       170           C   tau( 170) = (   0.1351635   0.2838973   0.0032325  )
       171           C   tau( 171) = (   0.0423951   0.4061403   0.0048951  )
       172           C   tau( 172) = (   0.4718806   0.0598007   0.0053706  )
       173           C   tau( 173) = (   0.3206685   0.0394311   0.0045875  )

     number of k points=     4  gaussian smearing, width (Ry)=  0.1000
                       cart. coord. in units 2pi/alat
        k(    1) = (   0.0000000   0.0000000   0.0000000), wk =   0.5000000
        k(    2) = (   0.0000000  -1.0670305   0.0000000), wk =   0.5000000
        k(    3) = (  -0.5000000  -0.5572533   0.0000000), wk =   0.5000000
        k(    4) = (  -0.5000000  -1.6242837   0.0000000), wk =   0.5000000

     Dense  grid:  3824339 G-vectors     FFT dimensions: ( 200, 135, 432)

     Smooth grid:   967507 G-vectors     FFT dimensions: ( 125,  90, 270)

     Estimated max dynamical RAM per process >       1.62 GB

     Estimated total dynamical RAM >      51.86 GB

     Check: negative core charge=   -0.000004

     Initial potential from superposition of free atoms

     starting charge 1023.97587, renormalised to 1024.00000

     negative rho (up, down):  3.630E-03 0.000E+00


     %%%%%%%%%%%%%%%%%%%%%%%%%%%%%%%%%%%%%%%%%%%%%%%%%%%%%%%%%%%%%%%%%%%%%%%%
     %                                                                      %
     % You are using vdW-DF, which was implemented by the Thonhauser group. %
     % Please cite the following two papers that made this development      %
     % possible and the two reviews that describe the various versions:     %
     %                                                                      %
     %   T. Thonhauser et al., PRL 115, 136402 (2015).                      %
     %   T. Thonhauser et al., PRB 76, 125112 (2007).                       %
     %   K. Berland et al., Rep. Prog. Phys. 78, 066501 (2015).             %
     %   D.C. Langreth et al., J. Phys.: Condens. Matter 21, 084203 (2009). %
     %                                                                      %
     %                                                                      %
     % If you are calculating the stress with vdW-DF, please also cite:     %
     %                                                                      %
     %   R. Sabatini et al., J. Phys.: Condens. Matter 24, 424209 (2012).   %
     %                                                                      %
     %%%%%%%%%%%%%%%%%%%%%%%%%%%%%%%%%%%%%%%%%%%%%%%%%%%%%%%%%%%%%%%%%%%%%%%%


     Starting wfcs are  836 randomized atomic wfcs
     Checking if some PAW data can be deallocated... 

     total cpu time spent up to now is     1227.8 secs

     Self-consistent Calculation

     iteration #  1     ecut=    40.00 Ry     beta= 0.40
     Davidson diagonalization with overlap
     ethr =  1.00E-02,  avg # of iterations =  2.0

     negative rho (up, down):  5.271E-03 0.000E+00

     total cpu time spent up to now is     4540.9 secs

     total energy              =   -9342.78187727 Ry
     Harris-Foulkes estimate   =   -9360.04609767 Ry
     estimated scf accuracy    <      71.00587316 Ry

     iteration #  2     ecut=    40.00 Ry     beta= 0.40
     Davidson diagonalization with overlap
     ethr =  6.93E-03,  avg # of iterations =  1.0

     negative rho (up, down):  7.627E-03 0.000E+00

     total cpu time spent up to now is     6735.0 secs

     total energy              =   -9343.30897304 Ry
     Harris-Foulkes estimate   =   -9346.82551485 Ry
     estimated scf accuracy    <      15.82741135 Ry

     iteration #  3     ecut=    40.00 Ry     beta= 0.40
     Davidson diagonalization with overlap
     ethr =  1.55E-03,  avg # of iterations =  5.0

     negative rho (up, down):  1.944E-02 0.000E+00

     total cpu time spent up to now is    10501.8 secs

     total energy              =   -9345.06407765 Ry
     Harris-Foulkes estimate   =   -9348.29622002 Ry
     estimated scf accuracy    <      17.88784828 Ry

     iteration #  4     ecut=    40.00 Ry     beta= 0.40
     Davidson diagonalization with overlap
     ethr =  1.55E-03,  avg # of iterations =  2.0

     negative rho (up, down):  3.447E-02 0.000E+00

     total cpu time spent up to now is    12697.4 secs

     total energy              =   -9346.24045141 Ry
     Harris-Foulkes estimate   =   -9347.49356349 Ry
     estimated scf accuracy    <       4.66151373 Ry

     iteration #  5     ecut=    40.00 Ry     beta= 0.40
     Davidson diagonalization with overlap
     ethr =  4.55E-04,  avg # of iterations =  5.2

     negative rho (up, down):  4.767E-02 0.000E+00

     total cpu time spent up to now is    15276.9 secs

     total energy              =   -9346.54006956 Ry
     Harris-Foulkes estimate   =   -9346.77208382 Ry
     estimated scf accuracy    <       3.01160345 Ry

     iteration #  6     ecut=    40.00 Ry     beta= 0.40
     Davidson diagonalization with overlap
     ethr =  2.94E-04,  avg # of iterations =  3.0

     negative rho (up, down):  3.408E-02 0.000E+00

     total cpu time spent up to now is    17499.2 secs

     total energy              =   -9346.44783784 Ry
     Harris-Foulkes estimate   =   -9346.63243057 Ry
     estimated scf accuracy    <       2.78790498 Ry

     iteration #  7     ecut=    40.00 Ry     beta= 0.40
     Davidson diagonalization with overlap
     ethr =  2.72E-04,  avg # of iterations =  1.0

     negative rho (up, down):  1.096E-02 0.000E+00

     total cpu time spent up to now is    19682.0 secs

     total energy              =   -9346.26316535 Ry
     Harris-Foulkes estimate   =   -9346.47906475 Ry
     estimated scf accuracy    <       1.92534085 Ry

     iteration #  8     ecut=    40.00 Ry     beta= 0.40
     Davidson diagonalization with overlap
     ethr =  1.88E-04,  avg # of iterations =  1.0

     negative rho (up, down):  1.298E-02 0.000E+00

     total cpu time spent up to now is    21903.3 secs

     total energy              =   -9346.17298045 Ry
     Harris-Foulkes estimate   =   -9346.31625631 Ry
     estimated scf accuracy    <       0.78695289 Ry

     iteration #  9     ecut=    40.00 Ry     beta= 0.40
     Davidson diagonalization with overlap
     ethr =  7.69E-05,  avg # of iterations =  8.2

     negative rho (up, down):  1.298E-02 0.000E+00

     total cpu time spent up to now is    24445.4 secs

     total energy              =   -9346.24951969 Ry
     Harris-Foulkes estimate   =   -9346.26258698 Ry
     estimated scf accuracy    <       0.10984810 Ry

     iteration # 10     ecut=    40.00 Ry     beta= 0.40
     Davidson diagonalization with overlap
     c_bands:  5 eigenvalues not converged
     c_bands:  3 eigenvalues not converged
     c_bands:  2 eigenvalues not converged
     c_bands:  1 eigenvalues not converged
     ethr =  1.07E-05,  avg # of iterations = 25.0

     negative rho (up, down):  2.791E-02 0.000E+00

     total cpu time spent up to now is    28348.9 secs

     total energy              =   -9346.25404810 Ry
     Harris-Foulkes estimate   =   -9346.26006181 Ry
     estimated scf accuracy    <       0.09774557 Ry

     iteration # 11     ecut=    40.00 Ry     beta= 0.40
     Davidson diagonalization with overlap
     c_bands:  3 eigenvalues not converged
     c_bands:  2 eigenvalues not converged
     ethr =  9.55E-06,  avg # of iterations = 16.0

     negative rho (up, down):  4.069E-02 0.000E+00

     total cpu time spent up to now is    31016.6 secs

     total energy              =   -9346.24835711 Ry
     Harris-Foulkes estimate   =   -9346.25914985 Ry
     estimated scf accuracy    <       0.08299753 Ry

     iteration # 12     ecut=    40.00 Ry     beta= 0.40
     Davidson diagonalization with overlap
     c_bands:  4 eigenvalues not converged
     ethr =  8.11E-06,  avg # of iterations =  8.8

     negative rho (up, down):  3.453E-02 0.000E+00

     total cpu time spent up to now is    33526.1 secs

     total energy              =   -9346.24975694 Ry
     Harris-Foulkes estimate   =   -9346.25228096 Ry
     estimated scf accuracy    <       0.04278382 Ry

     iteration # 13     ecut=    40.00 Ry     beta= 0.40
     Davidson diagonalization with overlap
     ethr =  4.18E-06,  avg # of iterations =  5.0

     negative rho (up, down):  2.636E-02 0.000E+00

     total cpu time spent up to now is    35603.6 secs

     total energy              =   -9346.24737179 Ry
     Harris-Foulkes estimate   =   -9346.25067313 Ry
     estimated scf accuracy    <       0.03350244 Ry

     iteration # 14     ecut=    40.00 Ry     beta= 0.40
     Davidson diagonalization with overlap
     c_bands:  2 eigenvalues not converged
     c_bands:  1 eigenvalues not converged
     ethr =  3.27E-06,  avg # of iterations = 16.0

     negative rho (up, down):  2.867E-02 0.000E+00

     total cpu time spent up to now is    38141.7 secs

     total energy              =   -9346.24469652 Ry
     Harris-Foulkes estimate   =   -9346.24948888 Ry
     estimated scf accuracy    <       0.03497612 Ry

     iteration # 15     ecut=    40.00 Ry     beta= 0.40
     Davidson diagonalization with overlap
     c_bands:  1 eigenvalues not converged
     ethr =  3.27E-06,  avg # of iterations = 12.0

     negative rho (up, down):  2.574E-02 0.000E+00

     total cpu time spent up to now is    40627.1 secs

     total energy              =   -9346.24589109 Ry
     Harris-Foulkes estimate   =   -9346.24687031 Ry
     estimated scf accuracy    <       0.01369613 Ry

     iteration # 16     ecut=    40.00 Ry     beta= 0.40
     Davidson diagonalization with overlap
     c_bands:  3 eigenvalues not converged
     c_bands:  1 eigenvalues not converged
     ethr =  1.34E-06,  avg # of iterations = 14.0

     negative rho (up, down):  2.163E-02 0.000E+00

     total cpu time spent up to now is    43229.7 secs

     total energy              =   -9346.24571432 Ry
     Harris-Foulkes estimate   =   -9346.24626573 Ry
     estimated scf accuracy    <       0.01031382 Ry

     iteration # 17     ecut=    40.00 Ry     beta= 0.40
     Davidson diagonalization with overlap
     c_bands:  1 eigenvalues not converged
     ethr =  1.01E-06,  avg # of iterations =  8.8

     negative rho (up, down):  2.463E-02 0.000E+00

     total cpu time spent up to now is    45621.2 secs

     total energy              =   -9346.24492164 Ry
     Harris-Foulkes estimate   =   -9346.24590027 Ry
     estimated scf accuracy    <       0.00755678 Ry

     iteration # 18     ecut=    40.00 Ry     beta= 0.40
     Davidson diagonalization with overlap
     c_bands:  2 eigenvalues not converged
     ethr =  7.38E-07,  avg # of iterations =  9.8

     negative rho (up, down):  2.681E-02 0.000E+00

     total cpu time spent up to now is    48022.9 secs

     total energy              =   -9346.24488119 Ry
     Harris-Foulkes estimate   =   -9346.24516890 Ry
     estimated scf accuracy    <       0.00465837 Ry

     iteration # 19     ecut=    40.00 Ry     beta= 0.40
     Davidson diagonalization with overlap
     ethr =  4.55E-07,  avg # of iterations =  2.2

     negative rho (up, down):  3.913E-02 0.000E+00

     total cpu time spent up to now is    50164.8 secs

     total energy              =   -9346.24442636 Ry
     Harris-Foulkes estimate   =   -9346.24496386 Ry
     estimated scf accuracy    <       0.00325237 Ry

     iteration # 20     ecut=    40.00 Ry     beta= 0.40
     Davidson diagonalization with overlap
     ethr =  3.18E-07,  avg # of iterations =  3.0

     negative rho (up, down):  5.118E-02 0.000E+00

     total cpu time spent up to now is    52384.1 secs

     total energy              =   -9346.24428863 Ry
     Harris-Foulkes estimate   =   -9346.24449125 Ry
     estimated scf accuracy    <       0.00210153 Ry

     iteration # 21     ecut=    40.00 Ry     beta= 0.40
     Davidson diagonalization with overlap
     ethr =  2.05E-07,  avg # of iterations =  4.0

     negative rho (up, down):  5.714E-02 0.000E+00

     total cpu time spent up to now is    54684.8 secs

     total energy              =   -9346.24436595 Ry
     Harris-Foulkes estimate   =   -9346.24434483 Ry
     estimated scf accuracy    <       0.00133825 Ry

     iteration # 22     ecut=    40.00 Ry     beta= 0.40
     Davidson diagonalization with overlap
     ethr =  1.31E-07,  avg # of iterations =  3.5

     negative rho (up, down):  5.879E-02 0.000E+00

     total cpu time spent up to now is    56907.7 secs

     total energy              =   -9346.24443501 Ry
     Harris-Foulkes estimate   =   -9346.24442468 Ry
     estimated scf accuracy    <       0.00059050 Ry

     iteration # 23     ecut=    40.00 Ry     beta= 0.40
     Davidson diagonalization with overlap
     ethr =  5.77E-08,  avg # of iterations =  4.5

     negative rho (up, down):  5.797E-02 0.000E+00

     total cpu time spent up to now is    59316.0 secs

     total energy              =   -9346.24443386 Ry
     Harris-Foulkes estimate   =   -9346.24446807 Ry
     estimated scf accuracy    <       0.00036057 Ry

     iteration # 24     ecut=    40.00 Ry     beta= 0.40
     Davidson diagonalization with overlap
     ethr =  3.52E-08,  avg # of iterations =  3.0

     negative rho (up, down):  5.901E-02 0.000E+00

     total cpu time spent up to now is    61626.8 secs

     total energy              =   -9346.24441222 Ry
     Harris-Foulkes estimate   =   -9346.24445550 Ry
     estimated scf accuracy    <       0.00019162 Ry

     iteration # 25     ecut=    40.00 Ry     beta= 0.40
     Davidson diagonalization with overlap
     ethr =  1.87E-08,  avg # of iterations =  2.2

     negative rho (up, down):  5.877E-02 0.000E+00

     total cpu time spent up to now is    63920.0 secs

     total energy              =   -9346.24439495 Ry
     Harris-Foulkes estimate   =   -9346.24442060 Ry
     estimated scf accuracy    <       0.00008512 Ry

     iteration # 26     ecut=    40.00 Ry     beta= 0.40
     Davidson diagonalization with overlap
     ethr =  8.31E-09,  avg # of iterations =  5.0

     negative rho (up, down):  5.801E-02 0.000E+00

     total cpu time spent up to now is    66514.2 secs

     total energy              =   -9346.24439996 Ry
     Harris-Foulkes estimate   =   -9346.24440545 Ry
     estimated scf accuracy    <       0.00003920 Ry

     iteration # 27     ecut=    40.00 Ry     beta= 0.40
     Davidson diagonalization with overlap
     ethr =  3.83E-09,  avg # of iterations =  3.0

     negative rho (up, down):  5.694E-02 0.000E+00

     total cpu time spent up to now is    68823.5 secs

     total energy              =   -9346.24439748 Ry
     Harris-Foulkes estimate   =   -9346.24440172 Ry
     estimated scf accuracy    <       0.00002286 Ry

     iteration # 28     ecut=    40.00 Ry     beta= 0.40
     Davidson diagonalization with overlap
     ethr =  2.23E-09,  avg # of iterations =  2.0

     negative rho (up, down):  5.641E-02 0.000E+00

     total cpu time spent up to now is    71144.9 secs

     total energy              =   -9346.24439880 Ry
     Harris-Foulkes estimate   =   -9346.24439850 Ry
     estimated scf accuracy    <       0.00000825 Ry

     iteration # 29     ecut=    40.00 Ry     beta= 0.40
     Davidson diagonalization with overlap
     c_bands:  1 eigenvalues not converged
     ethr =  8.06E-10,  avg # of iterations =  8.8

     negative rho (up, down):  5.596E-02 0.000E+00

     total cpu time spent up to now is    74079.4 secs

     total energy              =   -9346.24440140 Ry
     Harris-Foulkes estimate   =   -9346.24440004 Ry
     estimated scf accuracy    <       0.00000306 Ry

     iteration # 30     ecut=    40.00 Ry     beta= 0.40
     Davidson diagonalization with overlap
     ethr =  2.99E-10,  avg # of iterations =  2.8

     negative rho (up, down):  5.573E-02 0.000E+00

     total cpu time spent up to now is    76154.1 secs

     total energy              =   -9346.24440224 Ry
     Harris-Foulkes estimate   =   -9346.24440156 Ry
     estimated scf accuracy    <       0.00000122 Ry

     iteration # 31     ecut=    40.00 Ry     beta= 0.40
     Davidson diagonalization with overlap
     ethr =  1.19E-10,  avg # of iterations =  3.8

     negative rho (up, down):  5.548E-02 0.000E+00

     total cpu time spent up to now is    78483.4 secs

     End of self-consistent calculation

          k = 0.0000 0.0000 0.0000 (121045 PWs)   bands (ev):

   -66.2464 -66.2452 -66.2207 -66.2192 -65.9627 -65.9610 -65.9406 -65.9067
   -65.8940 -65.8937 -65.8867 -65.8707 -65.8640 -65.8635 -65.8527 -65.8511
   -65.8503 -65.8007 -65.7233 -65.7079 -65.7059 -65.6878 -65.6841 -65.6827
   -40.4590 -40.4564 -40.1962 -40.1903 -40.0467 -40.0422 -40.0365 -40.0303
   -40.0270 -40.0038 -40.0010 -39.9997 -39.9650 -39.9641 -39.9620 -39.9481
   -39.9394 -39.9379 -39.9370 -39.9274 -39.9165 -39.9139 -39.8981 -39.8979
   -39.8937 -39.8349 -39.8062 -39.7846 -39.7763 -39.7682 -39.7654 -39.7446
   -39.7391 -39.7386 -39.7320 -39.7281 -39.7229 -39.7199 -39.7160 -39.7079
   -39.7051 -39.7041 -39.6855 -39.6836 -39.6792 -39.6782 -39.6735 -39.6694
   -39.6551 -39.6512 -39.6476 -39.6467 -39.6449 -39.6404 -39.6334 -39.6329
   -39.6280 -39.6180 -39.6161 -39.5815 -39.5718 -39.5545 -39.5467 -39.5252
   -39.5094 -39.5077 -39.4998 -39.4955 -39.4823 -39.4775 -39.4772 -39.4473
   -20.1262 -19.9525 -19.7958 -19.7139 -19.6356 -19.6278 -19.4677 -19.4026
   -19.3061 -19.2783 -19.2739 -19.2724 -19.1948 -19.1893 -19.1087 -19.0712
   -19.0545 -19.0542 -19.0240 -18.9699 -18.8806 -18.8742 -18.8503 -18.8022
   -18.7797 -18.7487 -18.7014 -18.6600 -18.6136 -18.5920 -18.5594 -18.5257
   -18.5106 -18.4851 -18.4711 -18.4604 -18.4573 -18.4361 -18.3874 -18.3751
   -18.3658 -18.3560 -18.3421 -18.2855 -18.2776 -18.2522 -18.2450 -18.2428
   -18.2398 -18.1628 -18.1555 -18.1409 -18.1248 -18.1192 -17.9788 -17.9086
   -17.8922 -17.8888 -17.8571 -17.8389 -17.8204 -17.8130 -17.7800 -17.7725
   -17.7509 -17.7383 -17.6945 -17.6917 -17.6438 -17.5795 -17.4680 -17.4417
   -17.4341 -17.4336 -17.4103 -17.4071 -16.7869 -16.7843 -16.4918 -16.4721
   -16.4656 -16.4139 -16.1809 -16.1241 -16.1138 -16.0873 -15.8988 -15.8869
   -15.8693 -15.7718 -15.7261 -15.7236 -15.5598 -15.5201 -15.4875 -15.4844
   -15.3562 -15.2842 -15.1241 -14.4127 -13.9197 -13.9164 -13.6769 -13.3531
   -12.8659 -12.8653 -12.6734 -12.6701 -12.5351 -12.4742 -12.3074 -12.1696
   -12.1491 -12.1388 -12.0449 -12.0444 -11.8604 -11.8340 -11.7359 -11.7335
   -11.6279 -11.6060 -11.5629 -11.5576 -11.4220 -11.3803 -11.1355 -10.4925
   -10.4726 -10.4703 -10.3327 -10.3302 -10.2062  -9.9961  -9.8882  -9.4037
    -9.4020  -9.3432  -9.1000  -8.9481  -8.9183  -8.9149  -8.5261  -8.4306
    -8.3473  -8.3467  -8.2172  -7.9835  -7.9805  -7.9728  -7.9296  -7.8667
    -7.8665  -7.6717  -7.5691  -7.5356  -7.5065  -7.4446  -7.4018  -7.3656
    -7.3366  -7.3345  -7.3192  -7.3094  -7.3072  -7.2495  -7.1525  -7.1245
    -7.0805  -7.0767  -7.0708  -7.0555  -7.0119  -6.9887  -6.8641  -6.8630
    -6.8591  -6.8521  -6.8303  -6.7096  -6.6862  -6.6787  -6.6180  -6.6062
    -6.6026  -6.5990  -6.5854  -6.5473  -6.5399  -6.5198  -6.5004  -6.4983
    -6.4903  -6.4736  -6.4692  -6.4495  -6.4253  -6.4199  -6.4090  -6.3328
    -6.3252  -6.3141  -6.2994  -6.2732  -6.2697  -6.2512  -6.2236  -6.2230
    -6.2111  -6.1960  -6.1875  -6.1715  -6.1555  -6.1122  -6.1073  -6.0946
    -6.0786  -6.0743  -6.0578  -6.0326  -5.9988  -5.9832  -5.9802  -5.9401
    -5.8956  -5.8773  -5.8707  -5.8545  -5.8268  -5.8102  -5.7965  -5.7790
    -5.7713  -5.7031  -5.6851  -5.6690  -5.6341  -5.6141  -5.6014  -5.5746
    -5.5672  -5.5541  -5.5395  -5.4837  -5.4602  -5.4556  -5.4149  -5.3912
    -5.3648  -5.3437  -5.3276  -5.3047  -5.2856  -5.2739  -5.2732  -5.2575
    -5.2438  -5.2270  -5.2120  -5.2073  -5.2055  -5.1838  -5.1718  -5.1343
    -5.0832  -5.0464  -5.0114  -5.0042  -4.9703  -4.9548  -4.9385  -4.9319
    -4.9116  -4.8540  -4.8455  -4.7883  -4.7667  -4.7399  -4.7130  -4.6970
    -4.6730  -4.6505  -4.5864  -4.5699  -4.5466  -4.5211  -4.5001  -4.4553
    -4.4460  -4.4166  -4.4118  -4.4050  -4.3290  -4.3185  -4.3121  -4.2940
    -4.2797  -4.2648  -4.2322  -4.2220  -4.1944  -4.1772  -4.1593  -4.1433
    -4.1162  -4.0956  -4.0620  -4.0438  -4.0270  -4.0162  -3.9877  -3.9786
    -3.9614  -3.9483  -3.8973  -3.8750  -3.8522  -3.8464  -3.8337  -3.8275
    -3.8188  -3.8036  -3.7921  -3.7893  -3.7732  -3.7651  -3.7554  -3.7520
    -3.7381  -3.6999  -3.6935  -3.6860  -3.6554  -3.6509  -3.6348  -3.6182
    -3.5926  -3.5871  -3.5783  -3.5613  -3.5544  -3.5371  -3.5163  -3.4854
    -3.4761  -3.4627  -3.4616  -3.4513  -3.4369  -3.4173  -3.3981  -3.3924
    -3.3568  -3.3399  -3.3231  -3.3078  -3.2821  -3.2629  -3.2208  -3.2122
    -3.1908  -3.1812  -3.1708  -3.1248  -3.1047  -3.0899  -3.0740  -3.0674
    -3.0329  -3.0196  -3.0139  -3.0015  -2.9801  -2.9485  -2.9022  -2.8970
    -2.8842  -2.8614  -2.8550  -2.8410  -2.8308  -2.8182  -2.8053  -2.7988
    -2.7742  -2.7531  -2.7386  -2.7299  -2.6966  -2.6759  -2.6639  -2.6185
    -2.5953  -2.5542  -2.5429  -2.5190  -2.5031  -2.4495  -2.4404  -2.4328
    -2.3649  -2.3301  -2.2967  -2.2687  -2.2472  -2.2363  -2.2249  -2.1857
    -2.1675  -1.9578  -1.5095  -1.4417  -1.1347  -0.9312  -0.2615  -0.1553
    -0.0505   0.0570   0.1971   0.2101   0.2891   0.3152   0.3432   0.3769
     0.4254   0.4294   0.4547   0.4928   0.5036   0.5809   0.6048   0.6876
     0.7504   0.7921   0.9717   1.0105   1.0580   1.1184   1.1499   1.1918
     1.2082   1.2318   1.2657   1.3155   1.3547   1.3829   1.3864   1.4083
     1.5448   1.5637   1.5734   1.6124   1.6389   1.6504   1.6676   1.6920
     1.7127   1.7180   1.7575   1.7628   1.7720   1.7786   1.7935   1.7982
     1.8217   1.8384   1.8442   1.8702   1.8885   1.8921   1.8974   1.9042
     1.9517   1.9595   1.9786   2.0527   2.0751   2.0929   2.1321   2.1496
     2.1581   2.1735   2.1869   2.1972   2.2368   2.2413   2.2583   2.2717
     2.2930   2.3115   2.3240   2.3277   2.3362   2.3446   2.3565   2.3755
     2.4142   2.4185   2.4482   2.4761   2.5319   2.5378   2.5928   2.6071
     2.6333   2.7020   2.7456   2.7572   2.7808   2.7892   2.8062   2.8239
     2.8827   2.9054   2.9249   2.9774   3.0004   3.0078

          k = 0.0000-1.0670 0.0000 (120926 PWs)   bands (ev):

   -66.2464 -66.2452 -66.2207 -66.2192 -65.9627 -65.9610 -65.9406 -65.9067
   -65.8941 -65.8935 -65.8867 -65.8707 -65.8640 -65.8635 -65.8527 -65.8511
   -65.8503 -65.8007 -65.7232 -65.7079 -65.7059 -65.6877 -65.6842 -65.6826
   -40.4590 -40.4564 -40.1961 -40.1901 -40.0471 -40.0422 -40.0366 -40.0302
   -40.0268 -40.0039 -40.0008 -39.9995 -39.9651 -39.9640 -39.9621 -39.9481
   -39.9395 -39.9367 -39.9365 -39.9273 -39.9166 -39.9142 -39.8981 -39.8978
   -39.8936 -39.8349 -39.8041 -39.7875 -39.7765 -39.7740 -39.7597 -39.7510
   -39.7387 -39.7362 -39.7304 -39.7280 -39.7228 -39.7153 -39.7132 -39.7095
   -39.7082 -39.7037 -39.6878 -39.6855 -39.6807 -39.6773 -39.6730 -39.6570
   -39.6540 -39.6536 -39.6496 -39.6475 -39.6458 -39.6406 -39.6344 -39.6290
   -39.6246 -39.6226 -39.6146 -39.5909 -39.5705 -39.5522 -39.5453 -39.5286
   -39.5085 -39.5013 -39.4992 -39.4932 -39.4876 -39.4855 -39.4598 -39.4578
   -19.8727 -19.7095 -19.7071 -19.7057 -19.6560 -19.6457 -19.6224 -19.5454
   -19.5141 -19.4797 -19.4386 -19.4283 -19.3723 -19.3495 -19.3319 -19.3025
   -19.2861 -19.0808 -18.9536 -18.9122 -18.7712 -18.7190 -18.7075 -18.6999
   -18.6801 -18.6700 -18.6292 -18.6167 -18.5817 -18.5556 -18.4994 -18.4955
   -18.4773 -18.4510 -18.4018 -18.3947 -18.3830 -18.3717 -18.3611 -18.2913
   -18.2892 -18.2826 -18.2449 -18.1724 -18.1620 -18.0948 -18.0793 -18.0769
   -17.9352 -17.9256 -17.9163 -17.9139 -17.9129 -17.9077 -17.8836 -17.8635
   -17.8551 -17.8350 -17.8121 -17.8036 -17.8016 -17.7820 -17.7723 -17.7519
   -17.7476 -17.7447 -17.7184 -17.7090 -17.6837 -17.6474 -17.6372 -17.6138
   -17.5831 -17.5306 -17.4647 -17.4493 -17.4290 -17.4272 -17.4237 -17.4000
   -17.3714 -16.9219 -16.4409 -16.4386 -16.1209 -16.1042 -15.9878 -15.9803
   -15.6442 -15.4182 -14.9795 -14.9763 -14.8649 -14.7498 -14.7301 -14.7266
   -14.6449 -14.5574 -14.3614 -14.3583 -14.3563 -14.2550 -14.0669 -13.7885
   -13.5526 -13.3447 -13.2124 -13.2117 -12.9545 -12.9378 -12.9337 -12.7483
   -12.6575 -12.4550 -12.4502 -12.4062 -12.3632 -12.3611 -12.1590 -12.1273
   -11.9894 -10.8863 -10.6460 -10.6445 -10.2995 -10.0240  -9.9149  -9.9140
    -9.7117  -9.7107  -9.6790  -9.6032  -9.4333  -9.4314  -9.4068  -9.2710
    -9.1949  -9.1938  -9.1409  -9.0894  -9.0689  -9.0654  -8.9759  -8.9747
    -8.9491  -8.8811  -8.7932  -8.7255  -8.7247  -8.6524  -8.6019  -8.2909
    -8.2424  -7.9585  -7.9504  -7.9343  -7.9300  -7.8838  -7.7795  -7.6699
    -7.5435  -7.5430  -7.3652  -7.3027  -7.1331  -7.0919  -7.0739  -7.0680
    -7.0600  -7.0595  -7.0360  -7.0297  -7.0127  -7.0126  -6.9891  -6.9201
    -6.8570  -6.8541  -6.7962  -6.7659  -6.7393  -6.7270  -6.7253  -6.7162
    -6.7049  -6.6834  -6.6259  -6.5991  -6.5963  -6.5540  -6.5473  -6.5297
    -6.4984  -6.4822  -6.4346  -6.3989  -6.3579  -6.2896  -6.2701  -6.2694
    -6.2694  -6.2195  -6.1982  -6.1807  -6.1797  -6.1608  -6.1549  -6.1306
    -6.1183  -6.0983  -6.0838  -6.0673  -6.0282  -6.0175  -5.9837  -5.9763
    -5.9675  -5.9516  -5.9292  -5.9152  -5.8894  -5.8811  -5.8384  -5.8269
    -5.8203  -5.8123  -5.8020  -5.7751  -5.7666  -5.7541  -5.7451  -5.6707
    -5.6332  -5.6249  -5.5955  -5.5685  -5.5613  -5.5420  -5.5250  -5.4935
    -5.4392  -5.4187  -5.4166  -5.3936  -5.3708  -5.3567  -5.3110  -5.3101
    -5.2820  -5.2720  -5.2014  -5.1848  -5.1712  -5.1563  -5.1465  -5.1289
    -5.1232  -5.0920  -5.0837  -5.0708  -5.0446  -5.0350  -5.0328  -5.0287
    -5.0054  -4.9864  -4.9743  -4.9666  -4.9184  -4.9161  -4.9130  -4.8977
    -4.8757  -4.8643  -4.8370  -4.8153  -4.7899  -4.7748  -4.7582  -4.7344
    -4.7152  -4.6891  -4.6806  -4.6769  -4.6577  -4.6388  -4.6257  -4.6125
    -4.5904  -4.5595  -4.5325  -4.5117  -4.5107  -4.4950  -4.4823  -4.4726
    -4.4519  -4.4382  -4.4358  -4.4074  -4.3853  -4.3768  -4.3348  -4.3014
    -4.2706  -4.2445  -4.2139  -4.2044  -4.1970  -4.1532  -4.1334  -4.1009
    -4.0718  -4.0464  -4.0302  -4.0255  -4.0002  -3.9793  -3.9750  -3.9181
    -3.8788  -3.8665  -3.8384  -3.8070  -3.7886  -3.7785  -3.7667  -3.7552
    -3.7326  -3.7149  -3.6996  -3.6914  -3.6781  -3.6506  -3.6406  -3.6282
    -3.6143  -3.5784  -3.5693  -3.5584  -3.5116  -3.5024  -3.4861  -3.4786
    -3.4545  -3.4428  -3.4348  -3.4069  -3.3793  -3.3620  -3.3262  -3.3000
    -3.2944  -3.2874  -3.2818  -3.2343  -3.2132  -3.2063  -3.1627  -3.1588
    -3.1301  -3.1240  -3.1047  -3.0753  -3.0682  -3.0642  -3.0144  -2.9810
    -2.9696  -2.9613  -2.9493  -2.9246  -2.9059  -2.8855  -2.8746  -2.8502
    -2.8427  -2.8144  -2.7982  -2.7905  -2.7537  -2.7353  -2.7218  -2.6931
    -2.6571  -2.6562  -2.6122  -2.5800  -2.5639  -2.5562  -2.5440  -2.5049
    -2.4792  -2.4659  -2.4605  -2.4161  -2.3984  -2.3791  -2.3628  -2.3251
    -2.3183  -2.2963  -2.2674  -2.2593  -2.2321  -2.1898  -2.1242  -2.1123
    -2.0330  -1.9447  -1.7015  -1.6505  -1.5978  -1.1000  -0.2059  -0.1604
     0.0767   0.0903   0.1030   0.1840   0.2210   0.2908   0.3088   0.3604
     0.3885   0.4464   0.5007   0.5726   0.6401   0.7127   0.8015   0.8700
     0.8768   1.0417   1.0559   1.0594   1.0694   1.0834   1.0989   1.1609
     1.1803   1.1930   1.2318   1.2435   1.3030   1.3095   1.3181   1.3334
     1.3470   1.3617   1.3706   1.3852   1.4063   1.4742   1.5705   1.5939
     1.5952   1.6083   1.6340   1.6417   1.6566   1.6749   1.7075   1.7116
     1.7292   1.7313   1.7625   1.7958   1.8166   1.8213   1.8513   1.8612
     1.8708   1.8968   1.9039   1.9129   1.9333   1.9446   1.9700   1.9850
     2.0151   2.0215   2.0327   2.0738   2.0915   2.1240   2.1335   2.1456
     2.1726   2.2049   2.2202   2.2349   2.2497   2.2625   2.2807   2.2962
     2.3405   2.3585   2.3893   2.3960   2.4363   2.4674   2.4760   2.4862
     2.5119   2.5273   2.5635   2.7267   2.8129   2.9445   2.9608   2.9677
     2.9906   3.1027   3.1173   3.1606   3.1690   3.1779

          k =-0.5000-0.5573 0.0000 (120880 PWs)   bands (ev):

   -66.2464 -66.2452 -66.2207 -66.2192 -65.9627 -65.9610 -65.9406 -65.9067
   -65.8940 -65.8937 -65.8867 -65.8707 -65.8640 -65.8635 -65.8527 -65.8511
   -65.8503 -65.8007 -65.7232 -65.7079 -65.7059 -65.6877 -65.6842 -65.6826
   -40.4590 -40.4564 -40.1961 -40.1902 -40.0470 -40.0421 -40.0365 -40.0303
   -40.0269 -40.0040 -40.0008 -39.9992 -39.9652 -39.9640 -39.9621 -39.9481
   -39.9394 -39.9368 -39.9363 -39.9273 -39.9167 -39.9140 -39.8980 -39.8977
   -39.8936 -39.8348 -39.8060 -39.7890 -39.7736 -39.7733 -39.7613 -39.7402
   -39.7386 -39.7380 -39.7295 -39.7281 -39.7228 -39.7178 -39.7155 -39.7098
   -39.7089 -39.7036 -39.6897 -39.6847 -39.6835 -39.6801 -39.6722 -39.6568
   -39.6551 -39.6551 -39.6491 -39.6478 -39.6458 -39.6383 -39.6325 -39.6286
   -39.6219 -39.6200 -39.6147 -39.5903 -39.5710 -39.5543 -39.5470 -39.5300
   -39.5081 -39.5010 -39.4985 -39.4920 -39.4878 -39.4852 -39.4595 -39.4576
   -19.8980 -19.8858 -19.8804 -19.7165 -19.6329 -19.6162 -19.5615 -19.5149
   -19.4894 -19.4428 -19.3741 -19.3540 -19.2666 -19.2475 -19.0994 -19.0975
   -18.9905 -18.9836 -18.9400 -18.9278 -18.8090 -18.7833 -18.7706 -18.7373
   -18.7286 -18.7245 -18.6923 -18.6862 -18.6815 -18.6448 -18.6235 -18.5778
   -18.5431 -18.5246 -18.5173 -18.4685 -18.4428 -18.4310 -18.4100 -18.4051
   -18.3742 -18.3567 -18.3424 -18.2883 -18.2811 -18.2790 -18.2388 -18.1609
   -18.1381 -18.1111 -18.0404 -18.0347 -17.9197 -17.9138 -17.8831 -17.8641
   -17.8354 -17.8236 -17.8050 -17.8007 -17.7925 -17.7442 -17.7268 -17.7092
   -17.7070 -17.6843 -17.6433 -17.6286 -17.4648 -17.4493 -17.4290 -17.4272
   -17.4237 -17.4000 -17.3758 -17.3730 -17.0872 -17.0585 -17.0540 -17.0314
   -16.7383 -16.6725 -16.6682 -16.6094 -16.4628 -16.4616 -16.3636 -16.2962
   -16.1102 -15.7110 -15.1609 -15.1583 -14.9757 -14.8861 -14.8178 -14.7489
   -14.7423 -14.5622 -14.5235 -14.1023 -13.7863 -13.7455 -13.7427 -13.5537
   -13.5472 -13.4750 -13.3787 -13.3290 -13.1426 -12.9743 -12.7426 -12.7417
   -12.6613 -12.6603 -12.4803 -12.4298 -12.1783 -11.6158 -11.2977 -11.2961
   -11.0386 -10.9728 -10.9493 -10.9394 -10.9111 -10.9109 -10.7068 -10.5896
   -10.4795 -10.4776 -10.3840 -10.3366 -10.0433  -9.6944  -9.6925  -9.5945
    -9.3227  -9.1329  -9.0981  -9.0886  -8.7655  -8.5505  -8.5461  -8.4740
    -8.3588  -8.3578  -8.2656  -8.1877  -8.1125  -8.1028  -7.8818  -7.8613
    -7.8569  -7.7492  -7.6106  -7.6105  -7.5826  -7.5227  -7.5219  -7.4496
    -7.3833  -7.3367  -7.2976  -7.2616  -7.2450  -7.2438  -7.2276  -7.2010
    -7.1827  -7.1039  -7.1020  -7.0955  -7.0632  -7.0590  -7.0201  -7.0111
    -6.9819  -6.9135  -6.8727  -6.8648  -6.8430  -6.8232  -6.8085  -6.8057
    -6.7639  -6.7498  -6.7280  -6.7171  -6.7104  -6.7010  -6.6828  -6.5749
    -6.5596  -6.5553  -6.5454  -6.5350  -6.4753  -6.4508  -6.4087  -6.4077
    -6.3805  -6.3789  -6.3510  -6.3267  -6.3126  -6.2812  -6.2655  -6.2505
    -6.2172  -6.2066  -6.1792  -6.1488  -6.1393  -6.1341  -6.0998  -6.0686
    -6.0452  -6.0280  -5.9888  -5.9802  -5.9687  -5.9504  -5.9460  -5.9064
    -5.8626  -5.8378  -5.8260  -5.7998  -5.7898  -5.7625  -5.6997  -5.6314
    -5.6162  -5.5926  -5.5733  -5.5425  -5.5232  -5.5007  -5.4511  -5.4255
    -5.4010  -5.3233  -5.3213  -5.3102  -5.2981  -5.2945  -5.2884  -5.2866
    -5.2810  -5.2717  -5.2536  -5.2282  -5.2172  -5.1872  -5.1775  -5.1584
    -5.1491  -5.1287  -5.1140  -5.1051  -5.0942  -5.0831  -5.0420  -5.0055
    -4.9838  -4.9682  -4.9192  -4.8992  -4.8895  -4.8799  -4.8646  -4.8359
    -4.8130  -4.7846  -4.7779  -4.7560  -4.7267  -4.7025  -4.6876  -4.6701
    -4.6525  -4.6394  -4.6125  -4.6055  -4.5894  -4.5836  -4.5495  -4.5303
    -4.5273  -4.5242  -4.5006  -4.4829  -4.4668  -4.4583  -4.4295  -4.4223
    -4.4101  -4.3974  -4.3504  -4.3382  -4.3358  -4.3026  -4.2769  -4.2575
    -4.2388  -4.1927  -4.1746  -4.1510  -4.1408  -4.1332  -4.1177  -4.1031
    -4.0959  -4.0921  -4.0577  -4.0465  -4.0293  -4.0137  -3.9835  -3.9441
    -3.8995  -3.8723  -3.8633  -3.8396  -3.8288  -3.8163  -3.8026  -3.7809
    -3.7747  -3.7628  -3.7544  -3.7241  -3.6669  -3.6565  -3.6465  -3.6196
    -3.6012  -3.5861  -3.5762  -3.5690  -3.5408  -3.5310  -3.5101  -3.4727
    -3.4651  -3.4481  -3.4303  -3.4000  -3.3925  -3.3721  -3.3419  -3.3303
    -3.3127  -3.3013  -3.2825  -3.2345  -3.2332  -3.2103  -3.1985  -3.1792
    -3.1501  -3.1406  -3.1211  -3.0865  -3.0793  -3.0545  -3.0362  -3.0235
    -3.0229  -3.0011  -2.9762  -2.9638  -2.9215  -2.9013  -2.8614  -2.8557
    -2.8431  -2.7988  -2.7898  -2.7742  -2.7480  -2.7444  -2.7173  -2.7063
    -2.6779  -2.6564  -2.6487  -2.6146  -2.6060  -2.5832  -2.5688  -2.5608
    -2.5519  -2.5161  -2.5108  -2.4986  -2.4905  -2.4457  -2.4235  -2.4055
    -2.3855  -2.3321  -2.2953  -2.2677  -2.2623  -2.2491  -2.2406  -2.2080
    -2.1928  -1.7372  -1.2138  -1.1319  -0.7262  -0.6423  -0.2845  -0.1544
     0.0726   0.0937   0.1139   0.1291   0.1297   0.1836   0.2088   0.2860
     0.2951   0.3617   0.3680   0.4087   0.4618   0.4733   0.5611   0.6203
     0.6633   0.6774   0.7770   0.9986   1.0753   1.1434   1.1530   1.1750
     1.1842   1.2181   1.2356   1.2415   1.2856   1.3068   1.3315   1.3425
     1.3880   1.4006   1.4407   1.4934   1.5006   1.5162   1.5217   1.5527
     1.6071   1.6344   1.6523   1.6737   1.6885   1.6998   1.7100   1.7384
     1.7647   1.7790   1.7791   1.8262   1.8316   1.8447   1.8555   1.8760
     1.8959   1.9324   1.9548   1.9607   1.9877   2.0024   2.0293   2.0432
     2.0506   2.0737   2.0779   2.1037   2.1243   2.1524   2.1554   2.1934
     2.2677   2.2933   2.2996   2.3211   2.3349   2.3517   2.3656   2.3883
     2.4017   2.4066   2.4245   2.4518   2.4976   2.5103   2.5182   2.5250
     2.7225   2.7908   2.8406   2.8597   2.9056   2.9204   2.9502   2.9612
     2.9764   2.9927   3.0274   3.1045   3.1165   3.1385

          k =-0.5000-1.6243 0.0000 (120890 PWs)   bands (ev):

   -66.2464 -66.2452 -66.2207 -66.2192 -65.9627 -65.9610 -65.9406 -65.9067
   -65.8941 -65.8935 -65.8867 -65.8707 -65.8640 -65.8635 -65.8527 -65.8511
   -65.8503 -65.8007 -65.7233 -65.7079 -65.7059 -65.6878 -65.6841 -65.6827
   -40.4590 -40.4564 -40.1960 -40.1900 -40.0465 -40.0422 -40.0365 -40.0302
   -40.0268 -40.0036 -40.0008 -39.9995 -39.9649 -39.9639 -39.9620 -39.9481
   -39.9394 -39.9378 -39.9369 -39.9273 -39.9164 -39.9141 -39.8980 -39.8979
   -39.8936 -39.8349 -39.8036 -39.7850 -39.7765 -39.7695 -39.7631 -39.7488
   -39.7439 -39.7387 -39.7345 -39.7279 -39.7229 -39.7158 -39.7108 -39.7079
   -39.7044 -39.7040 -39.6842 -39.6824 -39.6794 -39.6780 -39.6729 -39.6659
   -39.6553 -39.6496 -39.6477 -39.6476 -39.6444 -39.6403 -39.6368 -39.6339
   -39.6283 -39.6198 -39.6181 -39.5816 -39.5709 -39.5517 -39.5452 -39.5249
   -39.5090 -39.5068 -39.5011 -39.4969 -39.4822 -39.4777 -39.4770 -39.4473
   -19.9413 -19.9200 -19.9062 -19.7005 -19.6616 -19.6490 -19.6344 -19.5003
   -19.4551 -19.4320 -19.2873 -19.2598 -19.1443 -19.0967 -19.0398 -19.0368
   -19.0353 -19.0018 -18.9266 -18.9223 -18.9120 -18.9045 -18.8132 -18.7569
   -18.7380 -18.7264 -18.7247 -18.6760 -18.6498 -18.6137 -18.5860 -18.5293
   -18.5280 -18.5062 -18.4857 -18.4495 -18.4151 -18.3995 -18.3949 -18.3834
   -18.3664 -18.3634 -18.3271 -18.3168 -18.2770 -18.2545 -18.2453 -18.2248
   -18.2180 -18.1694 -18.1435 -18.1292 -17.9222 -17.9137 -17.9017 -17.8882
   -17.8552 -17.8436 -17.8296 -17.8128 -17.7955 -17.7805 -17.7624 -17.7290
   -17.7108 -17.6938 -17.6906 -17.6439 -17.4767 -17.4733 -17.4679 -17.4416
   -17.4340 -17.4336 -17.4103 -17.4070 -17.1850 -17.1612 -17.1549 -17.1198
   -16.8607 -16.5647 -16.3750 -16.3693 -16.1686 -16.1684 -16.1137 -16.0261
   -15.8451 -15.5484 -15.0328 -15.0307 -15.0259 -15.0225 -14.8424 -14.7791
   -14.7184 -14.7045 -14.6694 -14.6661 -14.6346 -14.3928 -14.2960 -13.7945
   -13.7298 -13.3990 -13.3941 -13.3598 -13.1231 -12.6467 -12.1365 -12.1353
   -11.9905 -11.9903 -11.9456 -11.9442 -11.8615 -11.7926 -11.7167 -11.6794
   -11.4448 -11.1861 -11.0298 -11.0284 -10.9188 -10.9177 -10.7645 -10.7297
   -10.4853  -9.9640  -9.9158  -9.9091  -9.8482  -9.8471  -9.6662  -9.6449
    -9.6434  -9.6145  -9.4002  -9.2820  -9.0745  -8.9160  -8.9155  -8.8095
    -8.5481  -8.4660  -8.4359  -8.4333  -8.3079  -8.3073  -8.2348  -8.2105
    -8.1697  -8.1333  -7.7070  -7.4236  -7.3360  -7.2258  -7.1552  -7.1461
    -7.1343  -7.1273  -7.1181  -7.0932  -7.0926  -7.0562  -7.0129  -7.0112
    -6.9371  -6.9332  -6.9302  -6.9270  -6.9218  -6.8842  -6.8673  -6.8667
    -6.8568  -6.8473  -6.8234  -6.8189  -6.8128  -6.8124  -6.7938  -6.7520
    -6.7137  -6.6830  -6.6793  -6.6326  -6.5977  -6.5826  -6.5499  -6.5355
    -6.5201  -6.5163  -6.4666  -6.4532  -6.4506  -6.4500  -6.4251  -6.4133
    -6.3201  -6.3117  -6.2868  -6.2687  -6.2669  -6.2208  -6.2022  -6.1864
    -6.1846  -6.1733  -6.1546  -6.1419  -6.1288  -6.1152  -6.0814  -6.0744
    -6.0647  -6.0505  -6.0264  -6.0021  -5.9778  -5.9749  -5.9435  -5.9386
    -5.8806  -5.8606  -5.8416  -5.8297  -5.8159  -5.8017  -5.8012  -5.7891
    -5.7546  -5.7151  -5.6889  -5.6792  -5.6654  -5.5996  -5.5686  -5.5539
    -5.5265  -5.5006  -5.4622  -5.4385  -5.4374  -5.4189  -5.4011  -5.3737
    -5.3648  -5.3422  -5.3380  -5.2912  -5.2783  -5.2751  -5.2499  -5.2085
    -5.1792  -5.1666  -5.1632  -5.1386  -5.1197  -5.0943  -5.0877  -5.0698
    -5.0383  -5.0044  -4.9923  -4.9651  -4.9400  -4.9029  -4.8888  -4.8606
    -4.8228  -4.7973  -4.7700  -4.7394  -4.7277  -4.7235  -4.7002  -4.6569
    -4.6153  -4.6026  -4.5731  -4.5597  -4.5459  -4.5290  -4.4980  -4.4511
    -4.4387  -4.4283  -4.4217  -4.4052  -4.3998  -4.3849  -4.3461  -4.3283
    -4.3134  -4.2824  -4.2482  -4.2463  -4.2300  -4.2227  -4.1802  -4.1640
    -4.1560  -4.1406  -4.1288  -4.1098  -4.0940  -4.0881  -4.0764  -4.0708
    -4.0667  -4.0426  -4.0285  -4.0209  -3.9990  -3.9806  -3.9685  -3.9394
    -3.9179  -3.9105  -3.8931  -3.8742  -3.8693  -3.8408  -3.8327  -3.8074
    -3.8041  -3.8002  -3.7821  -3.7789  -3.7563  -3.7323  -3.7127  -3.6900
    -3.6661  -3.6562  -3.6384  -3.6160  -3.5691  -3.5423  -3.5212  -3.5070
    -3.4695  -3.4489  -3.4364  -3.4217  -3.4116  -3.3780  -3.3772  -3.3661
    -3.3432  -3.2987  -3.2759  -3.2367  -3.2271  -3.1916  -3.1802  -3.1616
    -3.1313  -3.1068  -3.0866  -3.0822  -3.0267  -3.0022  -2.9686  -2.9484
    -2.9224  -2.9038  -2.8982  -2.8692  -2.8671  -2.8621  -2.8318  -2.8292
    -2.8181  -2.8124  -2.7949  -2.7571  -2.7138  -2.7031  -2.6753  -2.6596
    -2.6380  -2.6266  -2.6216  -2.6039  -2.5849  -2.5795  -2.5705  -2.5659
    -2.5602  -2.5509  -2.5247  -2.5191  -2.5044  -2.4344  -2.3835  -2.3579
    -2.3495  -2.3030  -2.2827  -2.2598  -2.2424  -2.1801  -2.1712  -2.1181
    -2.0470  -2.0393  -2.0131  -2.0028  -1.9423  -1.2277  -0.2609  -0.2470
    -0.0459   0.0376   0.2040   0.2138   0.2851   0.2935   0.3344   0.3851
     0.4317   0.5277   0.5503   0.5758   0.6221   0.7054   0.7623   1.0192
     1.0429   1.0691   1.0954   1.1342   1.1370   1.1677   1.2070   1.2239
     1.2564   1.2595   1.3202   1.3289   1.3576   1.3724   1.3884   1.4024
     1.4043   1.4100   1.4203   1.4334   1.4864   1.5596   1.5640   1.5727
     1.5920   1.6173   1.6508   1.6547   1.6708   1.6810   1.6980   1.7116
     1.7522   1.7664   1.7742   1.7851   1.7965   1.8143   1.8228   1.8263
     1.8559   1.8813   1.8907   1.8970   1.9145   1.9344   1.9626   2.0079
     2.0145   2.0480   2.0577   2.1140   2.1378   2.2162   2.2288   2.2353
     2.2705   2.3057   2.3126   2.3240   2.3368   2.3429   2.3725   2.4137
     2.4383   2.5258   2.5430   2.5608   2.5848   2.6546   2.6783   2.7428
     2.7464   2.7541   2.8093   2.8588   2.8814   2.8909   2.8988   2.9179
     2.9277   2.9369   2.9532   2.9649   2.9849   2.9982

     the Fermi energy is    -0.6111 ev

!    total energy              =   -9346.24440287 Ry
     Harris-Foulkes estimate   =   -9346.24440232 Ry
     estimated scf accuracy    <       0.00000056 Ry

     total all-electron energy =    -61349.250948 Ry

     The total energy is the sum of the following terms:

     one-electron contribution =  -98284.69149307 Ry
     hartree contribution      =   49349.22998611 Ry
     xc contribution           =   -1373.24110954 Ry
     ewald contribution        =   43835.09219219 Ry
     one-center paw contrib.   =   -2871.18087287 Ry
     smearing contrib. (-TS)   =      -1.45310570 Ry

     convergence has been achieved in  31 iterations

     negative rho (up, down):  5.548E-02 0.000E+00

     Forces acting on atoms (cartesian axes, Ry/au):

     atom    1 type  1   force =    -0.00459924    0.00610596    0.02149158
     atom    2 type  1   force =     0.00075801    0.00136197    0.02159160
     atom    3 type  1   force =    -0.00322661    0.00661216    0.02227364
     atom    4 type  1   force =    -0.00021134    0.00183500   -0.01082580
     atom    5 type  1   force =    -0.00239812   -0.00045666   -0.01043988
     atom    6 type  1   force =    -0.00162040    0.00224396   -0.00986733
     atom    7 type  1   force =     0.00263445    0.00179834   -0.01403878
     atom    8 type  1   force =    -0.00179168   -0.00018543   -0.01427337
     atom    9 type  1   force =    -0.00696545    0.01388657   -0.02298121
     atom   10 type  1   force =    -0.00805041   -0.00393983    0.00140630
     atom   11 type  1   force =    -0.00216390    0.00343495    0.02132130
     atom   12 type  1   force =     0.00272811    0.00522701    0.00158495
     atom   13 type  1   force =     0.01365879   -0.01874395    0.02274263
     atom   14 type  1   force =     0.00475727   -0.00910622    0.01878264
     atom   15 type  1   force =     0.01569985   -0.01621932    0.02135491
     atom   16 type  1   force =    -0.00659503    0.00703955   -0.01424419
     atom   17 type  1   force =    -0.00554442    0.00848090   -0.01406242
     atom   18 type  1   force =    -0.00613491    0.00798045   -0.01389769
     atom   19 type  1   force =    -0.00452605   -0.00683598   -0.01030458
     atom   20 type  1   force =     0.00459430    0.00106131   -0.01131293
     atom   21 type  1   force =    -0.00397502    0.00061650   -0.00848315
     atom   22 type  1   force =    -0.01057358    0.00426753    0.20313562
     atom   23 type  1   force =    -0.00124119    0.00486065    0.02478153
     atom   24 type  1   force =     0.00275124    0.01623517    0.20404829
     atom   25 type  2   force =     0.00034539    0.00326161    0.00498694
     atom   26 type  2   force =    -0.00354795   -0.00101246    0.00486488
     atom   27 type  2   force =     0.00172230   -0.00187071    0.00621776
     atom   28 type  2   force =    -0.00088876   -0.00348285   -0.00787716
     atom   29 type  2   force =    -0.00019688    0.00002924   -0.00782334
     atom   30 type  2   force =     0.00152085   -0.00133620   -0.00793108
     atom   31 type  2   force =    -0.00189158    0.00384031   -0.00504553
     atom   32 type  2   force =     0.00066171    0.00037781   -0.00598009
     atom   33 type  2   force =    -0.00641943    0.00189676   -0.00547976
     atom   34 type  2   force =    -0.00108081   -0.00553354   -0.00250801
     atom   35 type  2   force =     0.00180933    0.00103008    0.00015687
     atom   36 type  2   force =    -0.00161599   -0.00013560   -0.00476982
     atom   37 type  2   force =    -0.00205102    0.00064666   -0.04482401
     atom   38 type  2   force =     0.00000353    0.00181793    0.03015960
     atom   39 type  2   force =    -0.00101351    0.00118678    0.03045258
     atom   40 type  2   force =     0.00030919    0.00065912    0.02989436
     atom   41 type  2   force =     0.00177872   -0.00188652    0.03114109
     atom   42 type  2   force =     0.00093895   -0.00260125    0.03119608
     atom   43 type  2   force =     0.00131072   -0.00225990    0.03168551
     atom   44 type  2   force =    -0.00138777    0.00405759   -0.02282841
     atom   45 type  2   force =    -0.00365109    0.00011500   -0.02251709
     atom   46 type  2   force =    -0.00041440    0.00033681   -0.02195604
     atom   47 type  2   force =     0.01119368   -0.01546993   -0.01366103
     atom   48 type  2   force =     0.00531093   -0.00407297    0.01018737
     atom   49 type  2   force =     0.01467220   -0.01235798   -0.01370135
     atom   50 type  2   force =     0.00216755   -0.00271569   -0.04206255
     atom   51 type  2   force =     0.00184970   -0.00154533   -0.04313396
     atom   52 type  2   force =     0.00318439   -0.00126707   -0.04293512
     atom   53 type  2   force =    -0.00194218    0.00872277    0.00502441
     atom   54 type  2   force =    -0.00459377    0.00595620    0.00476911
     atom   55 type  2   force =    -0.00394578    0.00783594    0.00482673
     atom   56 type  2   force =     0.00359379   -0.00557419   -0.00711671
     atom   57 type  2   force =     0.00437642   -0.00753334   -0.00622528
     atom   58 type  2   force =     0.00269959   -0.00652560   -0.00704702
     atom   59 type  2   force =     0.00720833   -0.00038100   -0.01208184
     atom   60 type  2   force =    -0.00256599    0.00629624   -0.00695860
     atom   61 type  2   force =     0.00423867   -0.00305570   -0.01202390
     atom   62 type  2   force =     0.01822320    0.00317950   -0.00162061
     atom   63 type  2   force =    -0.00703732   -0.01995853   -0.00031751
     atom   64 type  2   force =     0.00785356   -0.00945467   -0.00531735
     atom   65 type  2   force =     0.00780059   -0.01278376   -0.18297143
     atom   66 type  2   force =     0.00101801   -0.00059936   -0.04029875
     atom   67 type  2   force =     0.01065426   -0.00896725   -0.18095888
     atom   68 type  2   force =     0.00237143   -0.00136670    0.03758743
     atom   69 type  2   force =     0.00171057   -0.00195839    0.03770490
     atom   70 type  2   force =     0.00232138   -0.00210490    0.03674715
     atom   71 type  2   force =    -0.00165716    0.00134709    0.03914468
     atom   72 type  2   force =    -0.00180003    0.00135599    0.03908461
     atom   73 type  2   force =    -0.00163848    0.00140228    0.03892209
     atom   74 type  2   force =     0.00244504   -0.00126446   -0.00916484
     atom   75 type  2   force =     0.00161879   -0.00211016   -0.00903782
     atom   76 type  2   force =     0.00299162   -0.00253159   -0.00909504
     atom   77 type  2   force =    -0.02150803    0.01825072    0.01151240
     atom   78 type  2   force =    -0.00295553    0.00260327    0.01693215
     atom   79 type  2   force =    -0.02275799    0.01745449    0.01152751
     atom   80 type  2   force =    -0.00458903    0.00548905   -0.04265364
     atom   81 type  2   force =    -0.00126580    0.00186896   -0.03666042
     atom   82 type  2   force =    -0.00477239    0.00437770   -0.04168793
     atom   83 type  3   force =    -0.00327831   -0.00078180    0.00183265
     atom   84 type  3   force =    -0.00093998   -0.00298824    0.00273248
     atom   85 type  3   force =     0.00153770   -0.00160397   -0.00826868
     atom   86 type  3   force =    -0.00052308    0.00049700    0.00178231
     atom   87 type  3   force =    -0.00127147   -0.00062552    0.00694644
     atom   88 type  3   force =     0.00157341   -0.00183866    0.00055374
     atom   89 type  3   force =     0.00605674   -0.00071913   -0.00001644
     atom   90 type  3   force =     0.00058789   -0.00010051    0.00057693
     atom   91 type  3   force =    -0.00226252    0.00144931    0.00177827
     atom   92 type  3   force =    -0.00445945    0.00610064    0.00981845
     atom   93 type  3   force =    -0.00201697    0.00083871    0.00156930
     atom   94 type  3   force =    -0.00126433   -0.00130025    0.00237639
     atom   95 type  3   force =     0.00108670   -0.00003868    0.00047748
     atom   96 type  3   force =     0.00398499    0.00815057    0.01031902
     atom   97 type  3   force =     0.00207581   -0.00068883   -0.00004709
     atom   98 type  3   force =    -0.00114537    0.00107087    0.00200652
     atom   99 type  3   force =     0.00155856    0.00011169    0.00101339
     atom  100 type  3   force =     0.00004955   -0.00169978    0.00075951
     atom  101 type  3   force =     0.00051824   -0.00097241   -0.00039076
     atom  102 type  3   force =     0.00056779   -0.00057737    0.00162568
     atom  103 type  3   force =     0.00006859    0.00058591    0.00819617
     atom  104 type  3   force =     0.00044589   -0.00042530   -0.00962190
     atom  105 type  3   force =    -0.00126366   -0.00051130    0.00070067
     atom  106 type  3   force =    -0.00145050    0.00121803    0.00210619
     atom  107 type  3   force =     0.00294470    0.00215227    0.00013484
     atom  108 type  3   force =     0.00402389   -0.00927906    0.00953577
     atom  109 type  3   force =    -0.00134606   -0.00161950    0.00017990
     atom  110 type  3   force =    -0.00310169    0.00302926    0.00157317
     atom  111 type  3   force =    -0.00162989   -0.00015249    0.00026695
     atom  112 type  3   force =     0.00055056    0.00077436   -0.00004085
     atom  113 type  3   force =    -0.00446401   -0.00231674    0.00076180
     atom  114 type  3   force =     0.00174636    0.00091874    0.00221134
     atom  115 type  3   force =    -0.00007765   -0.00138842    0.00227348
     atom  116 type  3   force =     0.00229355    0.00316113    0.00092582
     atom  117 type  3   force =    -0.00065003    0.00160193    0.00113699
     atom  118 type  3   force =     0.00129283    0.00084236    0.00152735
     atom  119 type  3   force =    -0.00384252    0.00127336    0.00047877
     atom  120 type  3   force =     0.00001757   -0.00128174    0.00077784
     atom  121 type  3   force =    -0.00127367    0.00153792    0.00148678
     atom  122 type  3   force =    -0.00052114    0.00060742    0.00134338
     atom  123 type  3   force =     0.00203104   -0.00065988   -0.00078569
     atom  124 type  3   force =    -0.00046356   -0.00084584   -0.00074525
     atom  125 type  3   force =     0.00025030   -0.01082323    0.00786113
     atom  126 type  3   force =    -0.00107558    0.00740607   -0.01632541
     atom  127 type  3   force =     0.00357013   -0.00056498    0.00142386
     atom  128 type  3   force =    -0.00027435    0.00007115   -0.00122065
     atom  129 type  3   force =    -0.00036684    0.00042940   -0.00119616
     atom  130 type  3   force =     0.00019607   -0.00026413   -0.00144769
     atom  131 type  3   force =    -0.00011527    0.00008021   -0.00110592
     atom  132 type  3   force =    -0.00001186    0.00008563   -0.00137626
     atom  133 type  3   force =    -0.00028489   -0.00006080   -0.00144270
     atom  134 type  3   force =    -0.00016448   -0.00038757   -0.00056889
     atom  135 type  3   force =    -0.00009618   -0.00004415   -0.00167729
     atom  136 type  3   force =    -0.00035499   -0.00000239   -0.00144572
     atom  137 type  3   force =     0.00006795   -0.00004690   -0.00053384
     atom  138 type  3   force =    -0.00014752    0.00001649   -0.00133048
     atom  139 type  3   force =    -0.00022342   -0.00006455   -0.00177542
     atom  140 type  3   force =    -0.00024736    0.00024343   -0.00163297
     atom  141 type  3   force =    -0.00001678   -0.00008972   -0.00105654
     atom  142 type  3   force =    -0.00038398    0.00009056   -0.00132635
     atom  143 type  3   force =    -0.00040895   -0.00019064   -0.00168662
     atom  144 type  3   force =    -0.00033876    0.00037122   -0.00140270
     atom  145 type  3   force =    -0.00036000    0.00024944   -0.00036861
     atom  146 type  3   force =    -0.00057673   -0.00024100   -0.00092800
     atom  147 type  3   force =    -0.00006974   -0.00011011   -0.00153404
     atom  148 type  3   force =    -0.00013866   -0.00006681    0.00076352
     atom  149 type  3   force =     0.00039342   -0.00003635   -0.00084819
     atom  150 type  3   force =    -0.00034461    0.00012030   -0.00034716
     atom  151 type  3   force =     0.00069581    0.00020934   -0.00129207
     atom  152 type  3   force =    -0.00010455   -0.00005651   -0.00144484
     atom  153 type  3   force =     0.00012061    0.00025276   -0.00153495
     atom  154 type  3   force =     0.00003766    0.00019293   -0.00122995
     atom  155 type  3   force =     0.00028285    0.00003054   -0.00139981
     atom  156 type  3   force =     0.00011475    0.00017026   -0.00103208
     atom  157 type  3   force =    -0.00009032    0.00000834   -0.00157866
     atom  158 type  3   force =     0.00027919    0.00021900   -0.00119838
     atom  159 type  3   force =     0.00013053    0.00061912   -0.00044004
     atom  160 type  3   force =     0.00008021   -0.00012960   -0.00177098
     atom  161 type  3   force =     0.00021294    0.00023966   -0.00181659
     atom  162 type  3   force =     0.00034063   -0.00007537   -0.00131216
     atom  163 type  3   force =     0.00020619   -0.00026270   -0.00177577
     atom  164 type  3   force =     0.00007274    0.00021999   -0.00173542
     atom  165 type  3   force =     0.00008973    0.00004291   -0.00155114
     atom  166 type  3   force =     0.00031492   -0.00018775   -0.00145469
     atom  167 type  3   force =     0.00013670    0.00014743   -0.00162760
     atom  168 type  3   force =    -0.00051566    0.00011367   -0.00119159
     atom  169 type  3   force =     0.00027620   -0.00045352    0.00009810
     atom  170 type  3   force =     0.00004697    0.00037996   -0.00026960
     atom  171 type  3   force =     0.00016729   -0.00047819    0.00029093
     atom  172 type  3   force =    -0.00009876   -0.00001351   -0.00094013
     atom  173 type  3   force =     0.00027957   -0.00010423   -0.00137055

     Total force =     0.147779     Total SCF correction =     0.002356

     BFGS Geometry Optimization

     number of scf cycles    =   1
     number of bfgs steps    =   0

     energy   new            =   -9346.2444028685 Ry

     new trust radius        =       0.0448755688 bohr
     new conv_thr            =       0.0000010000 Ry


ATOMIC_POSITIONS (angstrom)
V        3.762178287   1.364786310   7.821964817
V        8.841105278   6.375905741   7.866181015
V        6.308983948   3.865492104   7.831747863
V       -4.337527300   6.058023132   8.947162083
V        9.108530336   3.550888794   8.944274764
V        6.563509688   1.057146621   8.925720888
V       -1.786273384   3.939284985   8.915591904
V       11.682007374   1.457035756   8.915983456
V        0.777564432   6.436743922   8.926695393
V        1.127352207   3.497508587   8.848033053
V       14.538777841   1.068878573   7.923502518
V        3.709915396   6.039798578   8.853274683
V        3.718353919   1.406315738  12.298194300    0   0   0
V        8.813218047   6.402926700  12.295658200    0   0   0
V        6.264103858   3.902635596  12.293923950    0   0   0
V       -4.379303541   6.066394648  13.526392950    0   0   0
V        9.066145619   3.568779669  13.523359850    0   0   0
V        6.519806417   1.070925629  13.528008200    0   0   0
V       -1.675975475   3.885346607  13.523464850    0   0   0
V       11.769980963   1.385175109  13.529815950    0   0   0
V        0.870909298   6.380772352  13.521391800    0   0   0
V        1.124277843   3.547121051  12.292021000    0   0   0
V       14.570010355   1.049934731  12.298049050    0   0   0
V        3.673040784   6.047861198  12.293490300    0   0   0
O       -5.669224154   7.411405094   8.370948754
O        7.764566817   4.905452272   8.377742369
O        5.199264606   2.432516534   8.356129328
O        5.093844528   0.038678693   8.374736550
O       10.197378288   5.011247874   8.427756909
O        7.629739237   2.523455602   8.374203768
O       -0.198918393   4.886636208   8.391832061
O       13.160145501   2.460937378   8.384425020
O        2.339393474   7.373393955   8.384508870
O       -0.391721495   2.549874399   8.467795412
O       13.063663960   0.052604618   8.484356597
O        2.186067391   5.022119062   8.594485271
O       14.489886061   1.081597858   6.291233535
O       -1.842693627   4.047089559  10.530032950
O       11.588288951   1.532464348  10.530589746
O        0.701091842   6.535432760  10.546746789
O       -4.227762861   5.958150644  10.554520683
O        9.194095338   3.424074500  10.551081495
O        6.652404045   0.950107708  10.533179517
O       -3.030556127   5.020404590   8.265326132
O       10.367388598   2.457487180   8.264034337
O        7.853357616  -0.023274013   8.275119038
O        2.363500613   2.501726063   8.216318012
O       15.870060031  -0.018430410   8.315921204
O        4.906991359   4.994931200   8.232545394
O        3.771214130   1.363829913   6.196263814
O        8.853178702   6.369736639   6.237379364
O        6.326769166   3.884672616   6.205893366
O       -5.702711833   7.414489292  12.813446450    0   0   0
O        7.743559063   4.914743081  12.802512450    0   0   0
O        5.195681223   2.417873834  12.813408300    0   0   0
O        5.020865853   0.072879298  12.996676350    0   0   0
O       10.114462377   5.069110012  12.992566300    0   0   0
O        7.567117068   2.570186497  12.992403200    0   0   0
O       -0.178099528   4.882225291  12.985999250    0   0   0
O       13.268480699   2.383296980  12.997542250    0   0   0
O        2.370588446   7.380091172  12.993963150    0   0   0
O       -0.353195677   2.536680542  12.809415500    0   0   0
O       13.093663790   0.038304542  12.814519200    0   0   0
O        2.193516715   5.035378412  12.799887100    0   0   0
O        1.162014442   3.489583265  10.697248450    0   0   0
O       14.604030493   0.997828479  10.703455000    0   0   0
O        3.716833214   6.001835241  10.698755200    0   0   0
O       -1.587444413   3.817407310  15.105003550    0   0   0
O       11.854680617   1.311784268  15.111351850    0   0   0
O        0.957935013   6.301419172  15.102513300    0   0   0
O       -4.464158963   6.135522502  15.108051350    0   0   0
O        8.977198344   3.644913106  15.104512150    0   0   0
O        6.435213289   1.144528402  15.109489850    0   0   0
O       -3.028364641   4.975220107  13.146549850    0   0   0
O       10.419215852   2.477251858  13.152003200    0   0   0
O       -0.480543833   7.473841387  13.150733050    0   0   0
O        2.420882360   2.478261156  12.887382550    0   0   0
O        7.516018429   7.472746882  12.887639800    0   0   0
O        4.968612789   4.975264247  12.885114550    0   0   0
O        3.681757289   1.456262280  10.703728000    0   0   0
O        8.779843243   6.457285962  10.700939900    0   0   0
O        6.221073710   3.947796067  10.699118850    0   0   0
C       -1.762737496   6.298043793   3.523187913
C        2.646531362   0.385450263   3.419449907
C        1.207055870   2.374504513   3.447613983
C        0.217323053   0.096801947   3.397707258
C       -0.136796976   4.369028365   3.467684681
C       -1.221549480   2.071643636   3.442864578
C        5.420764946   7.274699510   3.456929932
C       -2.659570310   4.028440115   3.486397812
C       12.337848131   1.763137175   3.554117194
C        3.017868476   6.994749265   3.791652944
C       -4.202357923   5.959098308   3.453692337
C       10.857047847   3.705489634   3.516854172
C        9.901225867   1.452334454   3.680007503
C        0.635753169   6.664590451   3.806197289
C        9.326977973   5.629527908   3.414174310
C        8.396019014   3.379378322   3.490074732
C        7.474888823   1.109483020   3.568684731
C        6.855304843   5.314305985   3.393234405
C        5.950639265   3.051310551   3.427027253
C        5.060582060   0.755956607   3.474450643
C        4.327078450   4.982146309   3.418748819
C        3.528217893   2.698639835   3.457674942
C       -4.392901696   7.358912398   3.443947863
C        2.470072412   1.770340700   3.447362076
C       -6.837231847   7.030319850   3.393428702
C        1.208700022   3.784591961   3.412676446
C        0.065157853   1.514568914   3.431920499
C        6.718685313   6.728867306   3.393547145
C       -1.325309870   3.490581222   3.460191120
C       13.630596317   1.204279487   3.482947942
C        4.281975612   6.409502324   3.547286275
C       -2.880418153   5.427407874   3.475509142
C       12.182641380   3.170486279   3.520830422
C       11.207884721   0.916897249   3.681698056
C       -5.340013715   5.102251684   3.455629521
C        9.718614538   2.851663261   3.563258601
C        8.781843197   0.585410136   3.690908785
C        8.184155687   4.775481247   3.423151504
C        7.273015378   2.515734167   3.488064434
C        6.373263131   0.219752579   3.531189263
C        5.696502407   4.449034687   3.390162191
C        4.852306624   2.172035425   3.458119120
C        3.164532178   4.060943544   3.409875487
C        1.910717471   6.229163909   4.090464146
C       -0.442217261   5.763300893   3.596299958
C        3.826733536   1.175707980   0.057933050    0   0   0
C       -0.074931286   2.804683515   0.054354650    0   0   0
C       -1.558527837   4.759707831   0.080938550    0   0   0
C       -2.493248586   2.478828905   0.071142750    0   0   0
C       -3.042071844   6.714747135   0.083291600    0   0   0
C       -3.976765896   4.433917295   0.087217200    0   0   0
C       11.081257285   2.153147708   0.084868700    0   0   0
C       -5.460273163   6.388989498   0.069453650    0   0   0
C        9.597750002   4.108125935   0.080282650    0   0   0
C        8.662989270   1.827344732   0.086209550    0   0   0
C        1.408541245   0.849871356   0.046669000    0   0   0
C        8.114382355   6.063093671   0.053606350    0   0   0
C        7.179589612   3.782206877   0.064050000    0   0   0
[...]
     atom   78 type  2   force =    -0.00306215    0.00269555    0.01713740
     atom   79 type  2   force =    -0.02203680    0.01686501    0.01133786
     atom   80 type  2   force =    -0.00605011    0.00632255   -0.04259639
     atom   81 type  2   force =    -0.00017064    0.00083189   -0.03455039
     atom   82 type  2   force =    -0.00666002    0.00593075   -0.04274697
     atom   83 type  3   force =     0.00005446   -0.00008898    0.00003802
     atom   84 type  3   force =    -0.00071286   -0.00003845   -0.00091625
     atom   85 type  3   force =    -0.00021227   -0.00003936    0.00021823
     atom   86 type  3   force =     0.00012350    0.00030281    0.00001687
     atom   87 type  3   force =    -0.00019543   -0.00043363    0.00042042
     atom   88 type  3   force =     0.00033184   -0.00032576    0.00032024
     atom   89 type  3   force =    -0.00000981    0.00051449    0.00023244
     atom   90 type  3   force =    -0.00004231   -0.00058883    0.00014333
     atom   91 type  3   force =     0.00021337   -0.00000850    0.00054992
     atom   92 type  3   force =    -0.00020479   -0.00002733   -0.00030026
     atom   93 type  3   force =    -0.00025094   -0.00034974   -0.00017119
     atom   94 type  3   force =     0.00041575    0.00015504   -0.00013024
     atom   95 type  3   force =     0.00025332    0.00063779   -0.00004080
     atom   96 type  3   force =     0.00002746    0.00003270   -0.00023569
     atom   97 type  3   force =    -0.00022494    0.00003504    0.00013831
     atom   98 type  3   force =     0.00049652    0.00024686    0.00089674
     atom   99 type  3   force =     0.00031593    0.00033189   -0.00008700
     atom  100 type  3   force =     0.00020808    0.00023752    0.00010021
     atom  101 type  3   force =     0.00058475    0.00021271    0.00022019
     atom  102 type  3   force =    -0.00026929    0.00002843    0.00004580
     atom  103 type  3   force =     0.00022657    0.00030169    0.00014394
     atom  104 type  3   force =    -0.00024477    0.00003442    0.00010684
     atom  105 type  3   force =     0.00026185    0.00037985    0.00004378
     atom  106 type  3   force =     0.00047016    0.00032025   -0.00011208
     atom  107 type  3   force =     0.00008255    0.00013698    0.00006063
     atom  108 type  3   force =    -0.00021041    0.00031552   -0.00008477
     atom  109 type  3   force =    -0.00004266    0.00036307   -0.00018758
     atom  110 type  3   force =    -0.00015403   -0.00025088   -0.00029055
     atom  111 type  3   force =    -0.00000814   -0.00002358    0.00096892
     atom  112 type  3   force =     0.00004406   -0.00020514    0.00036863
     atom  113 type  3   force =     0.00016595    0.00017034    0.00035001
     atom  114 type  3   force =     0.00020215    0.00029761   -0.00037222
     atom  115 type  3   force =     0.00000582   -0.00037607   -0.00086256
     atom  116 type  3   force =    -0.00019516   -0.00087968    0.00077432
     atom  117 type  3   force =    -0.00000337    0.00018885    0.00057470
     atom  118 type  3   force =     0.00026741   -0.00095286   -0.00068113
     atom  119 type  3   force =    -0.00004523   -0.00038364    0.00013851
     atom  120 type  3   force =    -0.00072347   -0.00031011    0.00073749
     atom  121 type  3   force =    -0.00041247   -0.00031183    0.00029899
     atom  122 type  3   force =    -0.00024555    0.00024457   -0.00038216
     atom  123 type  3   force =    -0.00042838   -0.00042336    0.00028126
     atom  124 type  3   force =    -0.00051994   -0.00024314   -0.00010746
     atom  125 type  3   force =     0.00048817    0.00016846   -0.00005320
     atom  126 type  3   force =    -0.00002225   -0.00040761   -0.00041638
     atom  127 type  3   force =    -0.00018025    0.00019175    0.00059418
     atom  128 type  3   force =    -0.00024045   -0.00001841   -0.00148888
     atom  129 type  3   force =    -0.00042403    0.00037999   -0.00048763
     atom  130 type  3   force =     0.00015532   -0.00032511   -0.00021260
     atom  131 type  3   force =    -0.00005816    0.00001555   -0.00014004
     atom  132 type  3   force =    -0.00001863    0.00001683   -0.00075735
     atom  133 type  3   force =    -0.00021736   -0.00009990   -0.00040181
     atom  134 type  3   force =    -0.00003797   -0.00037142    0.00034429
     atom  135 type  3   force =    -0.00002639   -0.00015097   -0.00155232
     atom  136 type  3   force =    -0.00030928   -0.00004925   -0.00093087
     atom  137 type  3   force =     0.00005587   -0.00002948    0.00013656
     atom  138 type  3   force =    -0.00017122   -0.00003683   -0.00159598
     atom  139 type  3   force =    -0.00025468   -0.00014492   -0.00173870
     atom  140 type  3   force =    -0.00024692    0.00019126   -0.00135332
     atom  141 type  3   force =     0.00005798   -0.00013372   -0.00083616
     atom  142 type  3   force =    -0.00043090    0.00012989   -0.00100658
     atom  143 type  3   force =    -0.00037594   -0.00019481   -0.00124160
     atom  144 type  3   force =    -0.00031796    0.00035347   -0.00130262
     atom  145 type  3   force =    -0.00029623    0.00018342    0.00032256
     atom  146 type  3   force =    -0.00041833   -0.00026445   -0.00019420
     atom  147 type  3   force =    -0.00012391    0.00004133   -0.00127078
     atom  148 type  3   force =    -0.00009460   -0.00012915    0.00125230
     atom  149 type  3   force =     0.00029067   -0.00013062    0.00015540
     atom  150 type  3   force =    -0.00031577    0.00005159    0.00043965
     atom  151 type  3   force =     0.00071846    0.00011618   -0.00103341
     atom  152 type  3   force =    -0.00003097   -0.00013757   -0.00023995
     atom  153 type  3   force =     0.00018619    0.00015357   -0.00090047
     atom  154 type  3   force =    -0.00003141    0.00024276   -0.00027494
     atom  155 type  3   force =     0.00025717    0.00004330   -0.00027599
     atom  156 type  3   force =     0.00012710    0.00014040   -0.00025963
     atom  157 type  3   force =    -0.00018950    0.00015251   -0.00105842
     atom  158 type  3   force =     0.00017478    0.00027693   -0.00036909
     atom  159 type  3   force =     0.00002357    0.00061323    0.00024884
     atom  160 type  3   force =     0.00010223   -0.00001121   -0.00222581
     atom  161 type  3   force =     0.00020621    0.00031656   -0.00174918
     atom  162 type  3   force =     0.00028493   -0.00001189   -0.00084921
     atom  163 type  3   force =     0.00026504   -0.00024214   -0.00182664
     atom  164 type  3   force =     0.00010852    0.00027092   -0.00155560
     atom  165 type  3   force =     0.00008843    0.00007971   -0.00158573
     atom  166 type  3   force =     0.00034619   -0.00022212   -0.00090818
     atom  167 type  3   force =     0.00014166    0.00010746   -0.00090648
     atom  168 type  3   force =    -0.00039548    0.00010119   -0.00127354
     atom  169 type  3   force =     0.00030151   -0.00042538    0.00049415
     atom  170 type  3   force =     0.00014528    0.00011065    0.00026966
     atom  171 type  3   force =     0.00010388   -0.00040581    0.00069747
     atom  172 type  3   force =    -0.00023406    0.00010260   -0.00039175
     atom  173 type  3   force =     0.00022551   -0.00001219   -0.00126010

     Total force =     0.007643     Total SCF correction =     0.000284

     bfgs converged in  38 scf cycles and  37 bfgs steps
     (criteria: energy <  1.0E-04 Ry, force <  1.0E-02 Ry/Bohr)

     End of BFGS Geometry Optimization

     Final energy   =   -9346.2878815723 Ry
Begin final coordinates

ATOMIC_POSITIONS (angstrom)
V        3.737585547   1.394367173   7.642303470
V        8.843583416   6.385546986   7.724069013
V        6.289963455   3.884830968   7.646055390
V       -4.323995874   6.060747594   8.824126759
V        9.100385285   3.548056433   8.841747720
V        6.547889679   1.068787942   8.845774874
V       -1.813499255   3.975214991   8.771968848
V       11.645735607   1.483184142   8.805370304
V        0.766281186   6.481627772   8.793150907
V        1.131393460   3.478506615   8.786840767
V       14.533827948   1.047768389   7.857952835
V        3.752145466   6.023107698   8.790618010
V        3.718353919   1.406315738  12.298194300    0   0   0
V        8.813218047   6.402926700  12.295658200    0   0   0
V        6.264103858   3.902635596  12.293923950    0   0   0
V       -4.379303541   6.066394648  13.526392950    0   0   0
V        9.066145619   3.568779669  13.523359850    0   0   0
V        6.519806417   1.070925629  13.528008200    0   0   0
V       -1.675975475   3.885346607  13.523464850    0   0   0
V       11.769980963   1.385175109  13.529815950    0   0   0
V        0.870909298   6.380772352  13.521391800    0   0   0
V        1.124277843   3.547121051  12.292021000    0   0   0
V       14.570010355   1.049934731  12.298049050    0   0   0
V        3.673040784   6.047861198  12.293490300    0   0   0
O       -5.665765261   7.424070553   8.277268928
O        7.747698235   4.913656397   8.264295682
O        5.152786822   2.476888424   8.262040558
O        5.075415154   0.077896370   8.267973233
O       10.197734189   5.009214497   8.280304402
O        7.585423018   2.546995722   8.304228824
O       -0.159092606   4.883560458   8.276824179
O       13.109194854   2.488862542   8.226317274
O        2.393506821   7.325803519   8.222063815
O       -0.437202644   2.555233353   8.407687222
O       13.103472929   0.079687336   8.595832693
O        2.220762701   4.986146933   8.677094958
O       14.441631028   0.960442671   6.242131173
O       -1.889726385   4.107245192  10.375758643
O       11.517370021   1.601699228  10.405653761
O        0.685991969   6.638127691  10.396528920
O       -4.198962535   5.923209114  10.421611306
O        9.218590599   3.420394900  10.440791157
O        6.657076193   0.914670959  10.442620420
O       -3.009887698   5.074699376   8.020258218
O       10.294026237   2.414784316   8.064938190
O        7.836368014   0.004550182   8.075940972
O        2.265477122   2.506796945   7.916046077
O       15.899858057  -0.004410194   8.280349053
O        4.877368639   5.082280712   7.874766296
O        3.843880680   1.301320405   6.036365354
O        8.837008490   6.407946325   6.107833714
O        6.440530658   3.779640513   6.045627387
O       -5.702711833   7.414489293  12.813446450    0   0   0
O        7.743559063   4.914743081  12.802512450    0   0   0
O        5.195681223   2.417873834  12.813408300    0   0   0
O        5.020865853   0.072879298  12.996676350    0   0   0
O       10.114462377   5.069110012  12.992566300    0   0   0
O        7.567117069   2.570186497  12.992403200    0   0   0
O       -0.178099528   4.882225291  12.985999250    0   0   0
O       13.268480699   2.383296980  12.997542250    0   0   0
O        2.370588446   7.380091172  12.993963150    0   0   0
O       -0.353195677   2.536680542  12.809415500    0   0   0
O       13.093663790   0.038304542  12.814519200    0   0   0
O        2.193516715   5.035378412  12.799887100    0   0   0
O        1.162014442   3.489583265  10.697248450    0   0   0
O       14.604030493   0.997828479  10.703455000    0   0   0
O        3.716833214   6.001835241  10.698755200    0   0   0
O       -1.587444413   3.817407310  15.105003550    0   0   0
O       11.854680617   1.311784268  15.111351850    0   0   0
O        0.957935013   6.301419172  15.102513300    0   0   0
O       -4.464158963   6.135522502  15.108051350    0   0   0
O        8.977198344   3.644913106  15.104512150    0   0   0
O        6.435213289   1.144528402  15.109489850    0   0   0
O       -3.028364641   4.975220107  13.146549850    0   0   0
O       10.419215852   2.477251858  13.152003200    0   0   0
O       -0.480543833   7.473841388  13.150733050    0   0   0
O        2.420882360   2.478261156  12.887382550    0   0   0
O        7.516018429   7.472746882  12.887639800    0   0   0
O        4.968612789   4.975264247  12.885114550    0   0   0
O        3.681757289   1.456262280  10.703728000    0   0   0
O        8.779843243   6.457285962  10.700939900    0   0   0
O        6.221073710   3.947796067  10.699118850    0   0   0
C       -1.754233240   6.293993769   3.691006579
C        2.649365664   0.368382057   3.375681851
C        1.211374686   2.356721025   3.474495196
C        0.212877250   0.087041393   3.392894212
C       -0.111365182   4.363589434   3.667137155
C       -1.218574698   2.067912246   3.546352055
C        5.410727695   7.269302253   3.548288917
C       -2.648716252   4.028366956   3.663258451
C       12.343345553   1.770950944   3.732975052
C        3.025762969   7.011354677   3.980911817
C       -4.196681578   5.951497087   3.529803435
C       10.858434891   3.709351945   3.662540403
C        9.897965793   1.466552845   3.873806520
C        0.626765962   6.684689480   4.021443202
C        9.325678717   5.620614899   3.420426408
C        8.392730503   3.379419836   3.562726121
C        7.469511979   1.116499935   3.688898068
C        6.844457807   5.308960639   3.413461407
C        5.944734184   3.046013916   3.429968967
C        5.066322687   0.743463466   3.482297209
C        4.303973440   4.972008339   3.530863342
C        3.528183518   2.677214984   3.435432412
C       -4.387424591   7.346115669   3.443239521
C        2.471872510   1.748738615   3.405240112
C       -6.840048863   7.018082748   3.361746499
C        1.242115576   3.771499683   3.563396125
C        0.065462940   1.504723870   3.463580435
C        6.709971761   6.722526645   3.424465011
C       -1.309577005   3.487987977   3.626892301
C       13.628938173   1.202759361   3.601200504
C        4.272987341   6.405994579   3.689236454
C       -2.873918365   5.424547176   3.627312306
C       12.188432163   3.177291885   3.700551954
C       11.209841315   0.934860234   3.886595182
C       -5.338659260   5.098127451   3.526825797
C        9.714950335   2.859947263   3.708004898
C        8.774136096   0.604692029   3.884846825
C        8.179159764   4.771255622   3.442555026
C        7.269261092   2.516281338   3.542420844
C        6.376720528   0.215504185   3.632413585
C        5.679639069   4.445273082   3.426344572
C        4.854589268   2.158881151   3.429868623
C        3.137963785   4.036804472   3.510968096
C        1.910619380   6.255639503   4.246850790
C       -0.432883528   5.761820332   3.811434854
C        3.826733536   1.175707980   0.057933050    0   0   0
C       -0.074931286   2.804683515   0.054354650    0   0   0
C       -1.558527837   4.759707831   0.080938550    0   0   0
C       -2.493248586   2.478828905   0.071142750    0   0   0
C       -3.042071844   6.714747135   0.083291600    0   0   0
C       -3.976765896   4.433917295   0.087217200    0   0   0
C       11.081257285   2.153147708   0.084868700    0   0   0
C       -5.460273163   6.388989498   0.069453650    0   0   0
C        9.597750002   4.108125935   0.080282650    0   0   0
C        8.662989270   1.827344732   0.086209550    0   0   0
C        1.408541245   0.849871356   0.046669000    0   0   0
C        8.114382355   6.063093671   0.053606350    0   0   0
C        7.179589612   3.782206877   0.064050000    0   0   0
C        6.244786259   1.501595788   0.074590950    0   0   0
C       14.983071806   0.523973280   0.047491150    0   0   0
C        5.696195246   5.737267464   0.045732750    0   0   0
C        4.761479220   3.456374974   0.049242900    0   0   0
C       12.564868588   0.198068685   0.059685500    0   0   0
C        3.278022058   5.411404086   0.049981400    0   0   0
C        2.343221744   3.130599276   0.045397100    0   0   0
C        1.794456667   7.366304300   0.076307350    0   0   0
C        0.859676216   5.085483678   0.065003400    0   0   0
C       -0.623729610   7.040512790   0.086338350    0   0   0
C        1.226843558   2.259644621   0.046419100    0   0   0
C       -0.256597260   4.214516433   0.067259850    0   0   0
C       -1.191325173   1.933690715   0.056851550    0   0   0
C       -1.740272006   6.169486642   0.087176250    0   0   0
C       -2.674985169   3.888639941   0.082687150    0   0   0
C       12.383166220   1.607817595   0.073687950    0   0   0
C       -4.158412771   5.843777417   0.082649700    0   0   0
C       10.899500728   3.562911231   0.087677100    0   0   0
C        9.964869240   1.281929112   0.086128700    0   0   0
C        2.710375465   0.304696820   0.057084300    0   0   0
C        9.416103002   5.517902798   0.068268550    0   0   0
C        8.481287482   3.237258286   0.078961400    0   0   0
C       -8.059917026   7.473003928   0.046934300    0   0   0
C        6.998098364   5.192037996   0.052646300    0   0   0
C        6.063232849   2.911323115   0.062163500    0   0   0
C        5.514579351   7.147125187   0.049028000    0   0   0
C        4.579882716   4.866215011   0.045568250    0   0   0
C        3.645205934   2.585482894   0.048629700    0   0   0
C        3.096342560   6.821178251   0.061993750    0   0   0
C        2.161635558   4.540299475   0.051696750    0   0   0
C        0.678014681   6.495300559   0.078285900    0   0   0
C        7.546668387   0.956377262   0.085890000    0   0   0
C        5.128370890   0.630612506   0.073366650    0   0   0
End final coordinates



     Writing output data file interface.save/

     init_run     :   1212.64s CPU   1226.09s WALL (       1 calls)
     electrons    : *********s CPU *********s WALL (      38 calls)
     update_pot   :    707.81s CPU    741.71s WALL (      37 calls)
     forces       :  26765.18s CPU  26984.20s WALL (      38 calls)

     Called by init_run:
     wfcinit      :   1151.52s CPU   1160.57s WALL (       1 calls)
     potinit      :     15.77s CPU     17.57s WALL (       1 calls)
     hinit0       :      9.75s CPU      9.92s WALL (       1 calls)

     Called by electrons:
     c_bands      : *********s CPU *********s WALL (     515 calls)
     sum_band     : 105709.11s CPU 107221.11s WALL (     515 calls)
     v_of_rho     :   3926.32s CPU   4427.46s WALL (     539 calls)
     newd         :  10708.17s CPU  11390.73s WALL (     539 calls)
     PAW_pot      :    870.14s CPU    871.71s WALL (     576 calls)
     mix_rho      :   3281.69s CPU   3437.13s WALL (     515 calls)

     Called by c_bands:
     init_us_2    :    671.11s CPU    673.46s WALL (    4424 calls)
     cegterg      : *********s CPU *********s WALL (    2061 calls)

     Called by sum_band:
     sum_band:bec :     88.50s CPU     88.74s WALL (    2208 calls)
     addusdens    :  12027.09s CPU  12746.00s WALL (     515 calls)

     Called by *egterg:
     h_psi        : 418593.72s CPU 422289.61s WALL (   10214 calls)
     s_psi        : 177629.19s CPU 178139.67s WALL (   10214 calls)
     g_psi        :     78.58s CPU     78.92s WALL (    8149 calls)
     cdiaghg      :  62446.61s CPU  63126.74s WALL (   10006 calls)

     Called by h_psi:
     h_psi:pot    : 418456.67s CPU 421940.02s WALL (   10214 calls)
     h_psi:calbec : 189840.00s CPU 190488.14s WALL (   10214 calls)
     vloc_psi     :  44979.31s CPU  47292.38s WALL (   10214 calls)
     add_vuspsi   : 183636.98s CPU 184159.36s WALL (   10214 calls)

     General routines
     calbec       : 300539.56s CPU 301571.06s WALL (   13030 calls)
     fft          :   4705.79s CPU   4826.22s WALL (   36250 calls)
     ffts         :   1996.40s CPU   2137.86s WALL (  160433 calls)
     fftw         :  48634.89s CPU  51348.26s WALL ( 7167576 calls)
     interpolate  :     55.48s CPU     57.58s WALL (     539 calls)

     Parallel routines
     fft_scatt_xy :   6309.30s CPU   6396.74s WALL ( 7364259 calls)
     fft_scatt_yz :  27808.23s CPU  30387.15s WALL ( 7364259 calls)

     PWSCF        :  14d 3h42m CPU  14d 6h29m WALL


   This run was terminated on:   2:33:12  28Mar2024            

=------------------------------------------------------------------------------=
   JOB DONE.
=------------------------------------------------------------------------------=
