
     Program PWSCF v.6.4.1 starts on 17May2024 at 20:54:37 

     This program is part of the open-source Quantum ESPRESSO suite
     for quantum simulation of materials; please cite
         "P. Giannozzi et al., J. Phys.:Condens. Matter 21 395502 (2009);
         "P. Giannozzi et al., J. Phys.:Condens. Matter 29 465901 (2017);
          URL http://www.quantum-espresso.org", 
     in publications or presentations arising from this work. More details at
     http://www.quantum-espresso.org/quote

     Parallel version (MPI), running on    32 processors

     MPI processes distributed on     1 nodes
     R & G space division:  proc/nbgrp/npool/nimage =      32
     Reading input from v2o5.vc-rlx.in

     Current dimensions of program PWSCF are:
     Max number of different atomic species (ntypx) = 10
     Max number of k-points (npk) =  40000
     Max angular momentum in pseudopotentials (lmaxx) =  3

     -------------------------------------------------
     Parameters for Dispersion (Grimme-D2) Correction:
     -------------------------------------------------
       atom      VdW radius       C_6     

        V          2.952        374.666
        O          2.536         24.284

     Subspace diagonalization in iterative solution of the eigenvalue problem:
     one sub-group per band group will be used
     ELPA distributed-memory algorithm (size of sub-group:  4*  4 procs)


     Parallelization info
     --------------------
     sticks:   dense  smooth     PW     G-vecs:    dense   smooth      PW
     Min          31      31      8                 2195     2195     316
     Max          32      32      9                 2204     2204     327
     Sum         999     999    277                70385    70385   10295



     bravais-lattice index     =            8
     lattice parameter (alat)  =       6.5972  a.u.
     unit-cell volume          =    1120.0009 (a.u.)^3
     number of atoms/cell      =           14
     number of atomic types    =            2
     number of electrons       =       112.00
     number of Kohn-Sham states=           56
     kinetic-energy cutoff     =      60.0000  Ry
     charge density cutoff     =     240.0000  Ry
     convergence threshold     =      1.0E-10
     mixing beta               =       0.7000
     number of iterations used =            8  plain     mixing
     Exchange-correlation      = PBE ( 1  4  3  4 0 0)
     nstep                     =          500


     celldm(1)=   6.597150  celldm(2)=   1.196243  celldm(3)=   3.260843
     celldm(4)=   0.000000  celldm(5)=   0.000000  celldm(6)=   0.000000

     crystal axes: (cart. coord. in units of alat)
               a(1) = (   1.000000   0.000000   0.000000 )  
               a(2) = (   0.000000   1.196243   0.000000 )  
               a(3) = (   0.000000   0.000000   3.260843 )  

     reciprocal axes: (cart. coord. in units 2 pi/alat)
               b(1) = (  1.000000  0.000000  0.000000 )  
               b(2) = (  0.000000  0.835951  0.000000 )  
               b(3) = (  0.000000  0.000000  0.306669 )  


     PseudoPot. # 1 for V  read from file:
     /home/mpicuntureo/pseudos/v.nc.upf
     MD5 check sum: 40fb93c06b4f9d8c28c5ccd071294a04
     Pseudo is Norm-conserving + core correction, Zval = 13.0
     Generated using ONCVPSP code by D. R. Hamann
     Using radial grid of 1536 points,  6 beta functions with: 
                l(1) =   0
                l(2) =   0
                l(3) =   1
                l(4) =   1
                l(5) =   2
                l(6) =   2

     PseudoPot. # 2 for O  read from file:
     /home/mpicuntureo/pseudos/o.nc.upf
     MD5 check sum: 3e3f909f7470e8921608ab6b1f57bbae
     Pseudo is Norm-conserving + core correction, Zval =  6.0
     Generated using ONCVPSP code by D. R. Hamann
     Using radial grid of  936 points,  5 beta functions with: 
                l(1) =   0
                l(2) =   0
                l(3) =   1
                l(4) =   1
                l(5) =   2

     atomic species   valence    mass     pseudopotential
        V             13.00    50.94150     V ( 1.00)
        O              6.00    15.99940     O ( 1.00)

      8 Sym. Ops., with inversion, found ( 4 have fractional translation)



   Cartesian axes

     site n.     atom                  positions (alat units)
         1           V   tau(   1) = (   0.0000000   0.4500060   2.1151241  )
         2           V   tau(   2) = (   0.5000000   0.7462368   2.7761404  )
         3           V   tau(   3) = (   0.5000000   0.7462368   0.4847026  )
         4           V   tau(   4) = (   0.0000000   0.4500060   1.1457189  )
         5           O   tau(   5) = (   0.5000000   0.5890644   2.2184971  )
         6           O   tau(   6) = (   0.0000000   0.6071783   2.6727674  )
         7           O   tau(   7) = (   0.0000000   0.6071783   0.5880756  )
         8           O   tau(   8) = (   0.5000000   0.5890644   1.0423459  )
         9           O   tau(   9) = (   0.0000000  -0.0035632   1.1528610  )
        10           O   tau(  10) = (   0.5000000   1.1998059   0.4775605  )
        11           O   tau(  11) = (   0.5000000   1.1998059   2.7832824  )
        12           O   tau(  12) = (   0.5000000   0.6112154   0.0000000  )
        13           O   tau(  13) = (   0.0000000   0.5850274   1.6304215  )
        14           O   tau(  14) = (   0.0000000  -0.0035632   2.1079820  )

     number of k points=     4
                       cart. coord. in units 2pi/alat
        k(    1) = (   0.0000000   0.0000000   0.0000000), wk =   0.2222222
        k(    2) = (   0.0000000   0.2786503   0.0000000), wk =   0.4444444
        k(    3) = (   0.3333333   0.0000000   0.0000000), wk =   0.4444444
        k(    4) = (   0.3333333   0.2786503   0.0000000), wk =   0.8888889

     Dense  grid:    70385 G-vectors     FFT dimensions: (  36,  40, 108)

     Estimated max dynamical RAM per process >      10.81 MB

     Estimated total dynamical RAM >     345.79 MB

     Check: negative core charge=   -0.000041

     Initial potential from superposition of free atoms

     starting charge  111.99579, renormalised to  112.00000
     Starting wfcs are   80 randomized atomic wfcs

     total cpu time spent up to now is        0.7 secs

     Self-consistent Calculation

     iteration #  1     ecut=    60.00 Ry     beta= 0.70
     Davidson diagonalization with overlap
     ethr =  1.00E-02,  avg # of iterations =  2.0

     total cpu time spent up to now is        1.2 secs

     total energy              =    -917.48603604 Ry
     Harris-Foulkes estimate   =    -923.46156774 Ry
     estimated scf accuracy    <       7.52635317 Ry

     iteration #  2     ecut=    60.00 Ry     beta= 0.70
     Davidson diagonalization with overlap
     ethr =  6.72E-03,  avg # of iterations =  6.5

     total cpu time spent up to now is        2.0 secs

     total energy              =    -908.24151857 Ry
     Harris-Foulkes estimate   =    -936.98209694 Ry
     estimated scf accuracy    <     126.56612239 Ry

     iteration #  3     ecut=    60.00 Ry     beta= 0.70
     Davidson diagonalization with overlap
     ethr =  6.72E-03,  avg # of iterations =  5.8

     total cpu time spent up to now is        2.7 secs

     total energy              =    -921.80812032 Ry
     Harris-Foulkes estimate   =    -922.48138922 Ry
     estimated scf accuracy    <       2.34328135 Ry

     iteration #  4     ecut=    60.00 Ry     beta= 0.70
     Davidson diagonalization with overlap
     ethr =  2.09E-03,  avg # of iterations =  3.8

     total cpu time spent up to now is        3.1 secs

     total energy              =    -921.89853106 Ry
     Harris-Foulkes estimate   =    -922.03517921 Ry
     estimated scf accuracy    <       0.89791180 Ry

     iteration #  5     ecut=    60.00 Ry     beta= 0.70
     Davidson diagonalization with overlap
     ethr =  8.02E-04,  avg # of iterations =  4.0

     total cpu time spent up to now is        3.4 secs

     total energy              =    -921.85591839 Ry
     Harris-Foulkes estimate   =    -921.96088747 Ry
     estimated scf accuracy    <       0.41709807 Ry

     iteration #  6     ecut=    60.00 Ry     beta= 0.70
     Davidson diagonalization with overlap
     ethr =  3.72E-04,  avg # of iterations =  4.0

     total cpu time spent up to now is        3.9 secs

     total energy              =    -921.96845836 Ry
     Harris-Foulkes estimate   =    -921.97500251 Ry
     estimated scf accuracy    <       0.07199252 Ry

     iteration #  7     ecut=    60.00 Ry     beta= 0.70
     Davidson diagonalization with overlap
     ethr =  6.43E-05,  avg # of iterations =  4.2

     total cpu time spent up to now is        4.3 secs

     total energy              =    -921.96515184 Ry
     Harris-Foulkes estimate   =    -921.97853370 Ry
     estimated scf accuracy    <       0.08352806 Ry

     iteration #  8     ecut=    60.00 Ry     beta= 0.70
     Davidson diagonalization with overlap
     ethr =  6.43E-05,  avg # of iterations =  2.0

     total cpu time spent up to now is        4.6 secs

     total energy              =    -921.95676936 Ry
     Harris-Foulkes estimate   =    -921.96730099 Ry
     estimated scf accuracy    <       0.04756781 Ry

     iteration #  9     ecut=    60.00 Ry     beta= 0.70
     Davidson diagonalization with overlap
     ethr =  4.25E-05,  avg # of iterations =  3.8

     total cpu time spent up to now is        5.0 secs

     total energy              =    -921.96555709 Ry
     Harris-Foulkes estimate   =    -921.96632393 Ry
     estimated scf accuracy    <       0.00297624 Ry

     iteration # 10     ecut=    60.00 Ry     beta= 0.70
     Davidson diagonalization with overlap
     ethr =  2.66E-06,  avg # of iterations =  4.8

     total cpu time spent up to now is        5.5 secs

     total energy              =    -921.96552382 Ry
     Harris-Foulkes estimate   =    -921.96609734 Ry
     estimated scf accuracy    <       0.00133860 Ry

     iteration # 11     ecut=    60.00 Ry     beta= 0.70
     Davidson diagonalization with overlap
     ethr =  1.20E-06,  avg # of iterations =  4.5

     total cpu time spent up to now is        6.1 secs

     total energy              =    -921.96594063 Ry
     Harris-Foulkes estimate   =    -921.96614422 Ry
     estimated scf accuracy    <       0.00081280 Ry

     iteration # 12     ecut=    60.00 Ry     beta= 0.70
     Davidson diagonalization with overlap
     ethr =  7.26E-07,  avg # of iterations =  3.0

     total cpu time spent up to now is        6.5 secs

     total energy              =    -921.96594423 Ry
     Harris-Foulkes estimate   =    -921.96598412 Ry
     estimated scf accuracy    <       0.00022882 Ry

     iteration # 13     ecut=    60.00 Ry     beta= 0.70
     Davidson diagonalization with overlap
     ethr =  2.04E-07,  avg # of iterations =  4.2

     total cpu time spent up to now is        6.9 secs

     total energy              =    -921.96600876 Ry
     Harris-Foulkes estimate   =    -921.96600944 Ry
     estimated scf accuracy    <       0.00001514 Ry

     iteration # 14     ecut=    60.00 Ry     beta= 0.70
     Davidson diagonalization with overlap
     ethr =  1.35E-08,  avg # of iterations =  4.5

     total cpu time spent up to now is        7.3 secs

     total energy              =    -921.96600806 Ry
     Harris-Foulkes estimate   =    -921.96601079 Ry
     estimated scf accuracy    <       0.00001886 Ry

     iteration # 15     ecut=    60.00 Ry     beta= 0.70
     Davidson diagonalization with overlap
     ethr =  1.35E-08,  avg # of iterations =  3.0

     total cpu time spent up to now is        7.6 secs

     total energy              =    -921.96600762 Ry
     Harris-Foulkes estimate   =    -921.96600875 Ry
     estimated scf accuracy    <       0.00000870 Ry

     iteration # 16     ecut=    60.00 Ry     beta= 0.70
     Davidson diagonalization with overlap
     ethr =  7.77E-09,  avg # of iterations =  3.2

     total cpu time spent up to now is        8.0 secs

     total energy              =    -921.96600719 Ry
     Harris-Foulkes estimate   =    -921.96600799 Ry
     estimated scf accuracy    <       0.00000455 Ry

     iteration # 17     ecut=    60.00 Ry     beta= 0.70
     Davidson diagonalization with overlap
     ethr =  4.07E-09,  avg # of iterations =  4.0

     total cpu time spent up to now is        8.4 secs

     total energy              =    -921.96600825 Ry
     Harris-Foulkes estimate   =    -921.96600829 Ry
     estimated scf accuracy    <       0.00000053 Ry

     iteration # 18     ecut=    60.00 Ry     beta= 0.70
     Davidson diagonalization with overlap
     ethr =  4.70E-10,  avg # of iterations =  4.5

     total cpu time spent up to now is        8.8 secs

     total energy              =    -921.96600819 Ry
     Harris-Foulkes estimate   =    -921.96600829 Ry
     estimated scf accuracy    <       0.00000058 Ry

     iteration # 19     ecut=    60.00 Ry     beta= 0.70
     Davidson diagonalization with overlap
     ethr =  4.70E-10,  avg # of iterations =  3.8

     total cpu time spent up to now is        9.2 secs

     total energy              =    -921.96600819 Ry
     Harris-Foulkes estimate   =    -921.96600822 Ry
     estimated scf accuracy    <       0.00000016 Ry

     iteration # 20     ecut=    60.00 Ry     beta= 0.70
     Davidson diagonalization with overlap
     ethr =  1.46E-10,  avg # of iterations =  4.0

     total cpu time spent up to now is        9.6 secs

     total energy              =    -921.96600823 Ry
     Harris-Foulkes estimate   =    -921.96600823 Ry
     estimated scf accuracy    <       0.00000002 Ry

     iteration # 21     ecut=    60.00 Ry     beta= 0.70
     Davidson diagonalization with overlap
     ethr =  1.86E-11,  avg # of iterations =  4.5

     total cpu time spent up to now is       10.2 secs

     total energy              =    -921.96600823 Ry
     Harris-Foulkes estimate   =    -921.96600824 Ry
     estimated scf accuracy    <       0.00000005 Ry

     iteration # 22     ecut=    60.00 Ry     beta= 0.70
     Davidson diagonalization with overlap
     ethr =  1.86E-11,  avg # of iterations =  3.0

     total cpu time spent up to now is       10.5 secs

     total energy              =    -921.96600823 Ry
     Harris-Foulkes estimate   =    -921.96600823 Ry
     estimated scf accuracy    <       0.00000002 Ry

     iteration # 23     ecut=    60.00 Ry     beta= 0.70
     Davidson diagonalization with overlap
     ethr =  1.86E-11,  avg # of iterations =  1.0

     total cpu time spent up to now is       10.8 secs

     total energy              =    -921.96600823 Ry
     Harris-Foulkes estimate   =    -921.96600823 Ry
     estimated scf accuracy    <       0.00000002 Ry

     iteration # 24     ecut=    60.00 Ry     beta= 0.70
     Davidson diagonalization with overlap
     ethr =  1.68E-11,  avg # of iterations =  4.0

     total cpu time spent up to now is       11.2 secs

     total energy              =    -921.96600823 Ry
     Harris-Foulkes estimate   =    -921.96600823 Ry
     estimated scf accuracy    <          1.7E-09 Ry

     iteration # 25     ecut=    60.00 Ry     beta= 0.70
     Davidson diagonalization with overlap
     ethr =  1.56E-12,  avg # of iterations =  4.5

     total cpu time spent up to now is       11.6 secs

     total energy              =    -921.96600823 Ry
     Harris-Foulkes estimate   =    -921.96600823 Ry
     estimated scf accuracy    <          5.3E-10 Ry

     iteration # 26     ecut=    60.00 Ry     beta= 0.70
     Davidson diagonalization with overlap
     ethr =  4.73E-13,  avg # of iterations =  4.0

     total cpu time spent up to now is       12.1 secs

     total energy              =    -921.96600823 Ry
     Harris-Foulkes estimate   =    -921.96600823 Ry
     estimated scf accuracy    <          5.5E-10 Ry

     iteration # 27     ecut=    60.00 Ry     beta= 0.70
     Davidson diagonalization with overlap
     ethr =  4.73E-13,  avg # of iterations =  1.0

     total cpu time spent up to now is       12.3 secs

     total energy              =    -921.96600823 Ry
     Harris-Foulkes estimate   =    -921.96600823 Ry
     estimated scf accuracy    <          5.6E-10 Ry

     iteration # 28     ecut=    60.00 Ry     beta= 0.70
     Davidson diagonalization with overlap
     ethr =  4.73E-13,  avg # of iterations =  2.0

     total cpu time spent up to now is       12.6 secs

     total energy              =    -921.96600823 Ry
     Harris-Foulkes estimate   =    -921.96600823 Ry
     estimated scf accuracy    <          2.9E-10 Ry

     iteration # 29     ecut=    60.00 Ry     beta= 0.70
     Davidson diagonalization with overlap
     ethr =  2.56E-13,  avg # of iterations =  2.5

     total cpu time spent up to now is       12.9 secs

     total energy              =    -921.96600823 Ry
     Harris-Foulkes estimate   =    -921.96600823 Ry
     estimated scf accuracy    <          1.6E-10 Ry

     iteration # 30     ecut=    60.00 Ry     beta= 0.70
     Davidson diagonalization with overlap
     ethr =  1.39E-13,  avg # of iterations =  4.0

     total cpu time spent up to now is       13.4 secs

     End of self-consistent calculation

          k = 0.0000 0.0000 0.0000 (  8783 PWs)   bands (ev):

   -58.8002 -58.7959 -58.7864 -58.7835 -32.8509 -32.8471 -32.8389 -32.8308
   -32.7919 -32.7312 -32.6958 -32.6731 -32.6701 -32.6386 -32.6308 -32.6277
   -12.6297 -12.4882 -11.4624 -11.3541 -11.2155 -11.1166 -10.7158 -10.6935
   -10.5603 -10.5075   0.6209   0.6222   0.6374   0.7321   0.9920   1.4588
     2.0824   2.2725   2.3146   2.6506   2.7568   2.8043   3.1123   3.1342
     3.2138   3.2503   3.2555   3.3177   3.4586   3.4649   3.4786   3.5006
     3.8636   4.1661   4.1669   4.2018   4.2309   4.3708   4.4767   4.5953

          k = 0.0000 0.2787 0.0000 (  8786 PWs)   bands (ev):

   -58.7990 -58.7968 -58.7863 -58.7827 -32.8561 -32.8523 -32.8470 -32.8389
   -32.7909 -32.7303 -32.6958 -32.6726 -32.6697 -32.6384 -32.6307 -32.6277
   -12.5010 -12.3766 -11.3545 -11.3040 -11.1987 -11.0864 -10.6973 -10.6699
   -10.4494 -10.4253   0.5339   0.5431   0.5486   0.6575   0.7308   0.8377
     1.2000   1.3760   1.4349   1.5920   2.1103   2.2930   2.3697   2.9120
     2.9652   3.1369   3.3126   3.4161   3.6367   3.8225   3.9649   4.0451
     4.2718   4.2828   4.3016   4.4200   4.4585   4.7725   4.8728   5.0824

          k = 0.3333 0.0000 0.0000 (  8816 PWs)   bands (ev):

   -58.7944 -58.7923 -58.7881 -58.7855 -32.8432 -32.8404 -32.8351 -32.8294
   -32.7904 -32.7624 -32.7453 -32.7388 -32.6775 -32.6743 -32.6546 -32.6388
   -12.0007 -11.8347 -11.3162 -11.1445 -11.1317 -11.0592 -10.6575 -10.6441
   -10.6266 -10.5550   0.0373   0.1225   0.8560   0.9204   1.0950   1.3794
     1.4922   1.9256   1.9436   2.3145   2.3449   2.4371   2.8911   2.9103
     2.9280   3.1053   3.1238   3.1307   3.4759   3.4870   3.5730   3.6529
     3.7570   3.9288   4.0958   4.1945   4.2604   4.3734   4.6279   4.8307

          k = 0.3333 0.2787 0.0000 (  8802 PWs)   bands (ev):

   -58.7936 -58.7916 -58.7877 -58.7856 -32.8490 -32.8461 -32.8423 -32.8366
   -32.7896 -32.7618 -32.7444 -32.7381 -32.6774 -32.6742 -32.6546 -32.6388
   -11.8877 -11.7483 -11.2482 -11.1376 -11.0906 -11.0323 -10.5949 -10.5702
   -10.4755 -10.4601   0.0227   0.1095   0.7343   0.7949   0.8707   0.9923
     1.2104   1.3145   1.3173   1.5530   1.6023   1.9745   2.2393   2.3274
     2.4986   2.5292   2.6478   2.7402   3.0163   3.4948   3.7583   3.9766
     4.1955   4.2624   4.7051   4.8178   4.8982   5.0196   5.0479   5.0841

     highest occupied level (ev):     5.0841

!    total energy              =    -921.96600823 Ry
     Harris-Foulkes estimate   =    -921.96600823 Ry
     estimated scf accuracy    <          8.2E-11 Ry

     The total energy is the sum of the following terms:

     one-electron contribution =    -537.28862253 Ry
     hartree contribution      =     312.77389866 Ry
     xc contribution           =    -174.40146436 Ry
     ewald contribution        =    -522.90625112 Ry
     Dispersion Correction     =      -0.14356887 Ry

     convergence has been achieved in  30 iterations

     Forces acting on atoms (cartesian axes, Ry/au):

     atom    1 type  1   force =     0.00000000   -0.00383144    0.00056099
     atom    2 type  1   force =     0.00000000    0.00383144   -0.00056099
     atom    3 type  1   force =     0.00000000    0.00383144    0.00056099
     atom    4 type  1   force =     0.00000000   -0.00383144   -0.00056099
     atom    5 type  2   force =     0.00000000    0.00012625    0.00085172
     atom    6 type  2   force =     0.00000000   -0.00012625   -0.00085172
     atom    7 type  2   force =     0.00000000   -0.00012625    0.00085172
     atom    8 type  2   force =     0.00000000    0.00012625   -0.00085172
     atom    9 type  2   force =     0.00000000    0.00411295   -0.00015726
     atom   10 type  2   force =     0.00000000   -0.00411295    0.00015726
     atom   11 type  2   force =     0.00000000   -0.00411295   -0.00015726
     atom   12 type  2   force =     0.00000000   -0.00021520    0.00000000
     atom   13 type  2   force =     0.00000000    0.00021520    0.00000000
     atom   14 type  2   force =     0.00000000    0.00411295    0.00015726

     Total force =     0.011437     Total SCF correction =     0.000015


     Computing stress (Cartesian axis) and pressure

          total   stress  (Ry/bohr**3)                   (kbar)     P=  -64.17
  -0.00032425   0.00000000   0.00000000        -47.70      0.00      0.00
   0.00000000  -0.00063331   0.00000000          0.00    -93.16      0.00
   0.00000000   0.00000000  -0.00035103          0.00      0.00    -51.64


     BFGS Geometry Optimization

     number of scf cycles    =   1
     number of bfgs steps    =   0

     enthalpy new            =    -921.9660082296 Ry

     new trust radius        =       0.1059732677 bohr
     new conv_thr            =            1.0E-10 Ry

     new unit-cell volume =   1083.73801 a.u.^3 (   160.59340 Ang^3 )
     density =      3.76129 g/cm^3

CELL_PARAMETERS (alat=  6.59715045)
   0.991893717   0.000000000   0.000000000
   0.000000000   1.177302867   0.000000000
   0.000000000   0.000000000   3.232226591

ATOMIC_POSITIONS (crystal)
V        0.000000000   0.375697336   0.648669429
V        0.500000004   0.624302673   0.851330584
V        0.500000004   0.624302673   0.148669425
V        0.000000000   0.375697336   0.351330580
O        0.500000004   0.492444821   0.680384255
O        0.000000000   0.507555188   0.819615756
O        0.000000000   0.507555188   0.180384252
O        0.500000004   0.492444821   0.319615752
O        0.000000000  -0.002457488   0.353539605
O        0.500000004   1.002457498   0.146460400
O        0.500000004   1.002457498   0.853539608
O        0.500000004   0.510918669   0.000000000
O        0.000000000   0.489081340   0.500000004
O        0.000000000  -0.002457488   0.646460406



     Writing output data file v2o5.save/
     NEW-OLD atomic charge density approx. for the potential

     Check: negative core charge=   -0.000034
     extrapolated charge  108.25252, renormalised to  112.00000

     total cpu time spent up to now is       14.8 secs

     Self-consistent Calculation

     iteration #  1     ecut=    60.00 Ry     beta= 0.70
     Davidson diagonalization with overlap
     ethr =  1.00E-06,  avg # of iterations = 16.8

     total cpu time spent up to now is       17.5 secs

     total energy              =    -914.87103899 Ry
     Harris-Foulkes estimate   =    -937.07989930 Ry
     estimated scf accuracy    <       7.28664108 Ry

     iteration #  2     ecut=    60.00 Ry     beta= 0.70
     Davidson diagonalization with overlap
     ethr =  6.51E-03,  avg # of iterations =  4.0

     total cpu time spent up to now is       18.6 secs

     total energy              =    -921.74721019 Ry
     Harris-Foulkes estimate   =    -933.52503075 Ry
     estimated scf accuracy    <      31.84666885 Ry

     iteration #  3     ecut=    60.00 Ry     beta= 0.70
     Davidson diagonalization with overlap
     ethr =  6.51E-03,  avg # of iterations =  3.0

     total cpu time spent up to now is       19.3 secs

     total energy              =    -921.95389553 Ry
     Harris-Foulkes estimate   =    -923.51347092 Ry
     estimated scf accuracy    <       7.44287198 Ry

     iteration #  4     ecut=    60.00 Ry     beta= 0.70
     Davidson diagonalization with overlap
     ethr =  6.51E-03,  avg # of iterations =  1.0

     total cpu time spent up to now is       19.7 secs

     total energy              =    -921.71531384 Ry
     Harris-Foulkes estimate   =    -922.11141547 Ry
     estimated scf accuracy    <       4.55522759 Ry

     iteration #  5     ecut=    60.00 Ry     beta= 0.70
     Davidson diagonalization with overlap
     ethr =  4.07E-03,  avg # of iterations =  1.0

     total cpu time spent up to now is       20.1 secs

     total energy              =    -921.48917548 Ry
     Harris-Foulkes estimate   =    -921.83352715 Ry
     estimated scf accuracy    <       3.33645053 Ry

     iteration #  6     ecut=    60.00 Ry     beta= 0.70
     Davidson diagonalization with overlap
     ethr =  2.98E-03,  avg # of iterations =  4.2

     total cpu time spent up to now is       20.7 secs

     total energy              =    -921.89169553 Ry
     Harris-Foulkes estimate   =    -921.79502474 Ry
     estimated scf accuracy    <       1.03958440 Ry

     iteration #  7     ecut=    60.00 Ry     beta= 0.70
     Davidson diagonalization with overlap
     ethr =  9.28E-04,  avg # of iterations =  4.0

     total cpu time spent up to now is       21.3 secs

     total energy              =    -922.04888705 Ry
     Harris-Foulkes estimate   =    -922.03561639 Ry
     estimated scf accuracy    <       0.48956806 Ry

     iteration #  8     ecut=    60.00 Ry     beta= 0.70
     Davidson diagonalization with overlap
     ethr =  4.37E-04,  avg # of iterations =  2.8

     total cpu time spent up to now is       21.7 secs

     total energy              =    -922.09379187 Ry
     Harris-Foulkes estimate   =    -922.05767406 Ry
     estimated scf accuracy    <       0.51155139 Ry

     iteration #  9     ecut=    60.00 Ry     beta= 0.70
     Davidson diagonalization with overlap
     ethr =  4.37E-04,  avg # of iterations =  1.0

     total cpu time spent up to now is       22.1 secs

     total energy              =    -922.11413542 Ry
     Harris-Foulkes estimate   =    -922.09957384 Ry
     estimated scf accuracy    <       0.64085953 Ry

     iteration # 10     ecut=    60.00 Ry     beta= 0.70
     Davidson diagonalization with overlap
     ethr =  4.37E-04,  avg # of iterations =  1.0

     total cpu time spent up to now is       22.5 secs

     total energy              =    -922.03233522 Ry
     Harris-Foulkes estimate   =    -922.11928908 Ry
     estimated scf accuracy    <       0.70999302 Ry

     iteration # 11     ecut=    60.00 Ry     beta= 0.70
     Davidson diagonalization with overlap
     ethr =  4.37E-04,  avg # of iterations =  1.0

     total cpu time spent up to now is       22.9 secs

     total energy              =    -921.96146215 Ry
     Harris-Foulkes estimate   =    -922.04152655 Ry
     estimated scf accuracy    <       0.58635378 Ry

     iteration # 12     ecut=    60.00 Ry     beta= 0.70
     Davidson diagonalization with overlap
     ethr =  4.37E-04,  avg # of iterations =  1.8

     total cpu time spent up to now is       23.3 secs

     total energy              =    -921.90096344 Ry
     Harris-Foulkes estimate   =    -921.97349618 Ry
     estimated scf accuracy    <       0.32676189 Ry

     iteration # 13     ecut=    60.00 Ry     beta= 0.70
     Davidson diagonalization with overlap
     ethr =  2.92E-04,  avg # of iterations =  4.0

     total cpu time spent up to now is       24.0 secs

     total energy              =    -921.96406250 Ry
     Harris-Foulkes estimate   =    -921.97024134 Ry
     estimated scf accuracy    <       0.01834267 Ry

     iteration # 14     ecut=    60.00 Ry     beta= 0.70
     Davidson diagonalization with overlap
     ethr =  1.64E-05,  avg # of iterations =  5.0

     total cpu time spent up to now is       25.0 secs

     total energy              =    -921.96371031 Ry
     Harris-Foulkes estimate   =    -921.97024591 Ry
     estimated scf accuracy    <       0.01081182 Ry

     iteration # 15     ecut=    60.00 Ry     beta= 0.70
     Davidson diagonalization with overlap
     ethr =  9.65E-06,  avg # of iterations =  5.0

     total cpu time spent up to now is       26.0 secs

     total energy              =    -921.96349722 Ry
     Harris-Foulkes estimate   =    -921.97409333 Ry
     estimated scf accuracy    <       0.04416897 Ry

     iteration # 16     ecut=    60.00 Ry     beta= 0.70
     Davidson diagonalization with overlap
     ethr =  9.65E-06,  avg # of iterations =  4.0

     total cpu time spent up to now is       26.9 secs

     total energy              =    -921.96874103 Ry
     Harris-Foulkes estimate   =    -921.96852640 Ry
     estimated scf accuracy    <       0.00023475 Ry

     iteration # 17     ecut=    60.00 Ry     beta= 0.70
     Davidson diagonalization with overlap
     ethr =  2.10E-07,  avg # of iterations =  5.2

     total cpu time spent up to now is       28.0 secs

     total energy              =    -921.96973710 Ry
     Harris-Foulkes estimate   =    -921.96989961 Ry
     estimated scf accuracy    <       0.01015577 Ry

     iteration # 18     ecut=    60.00 Ry     beta= 0.70
     Davidson diagonalization with overlap
     ethr =  2.10E-07,  avg # of iterations =  1.0

     total cpu time spent up to now is       28.4 secs

     total energy              =    -921.96979096 Ry
     Harris-Foulkes estimate   =    -921.96974122 Ry
     estimated scf accuracy    <       0.00977173 Ry

     iteration # 19     ecut=    60.00 Ry     beta= 0.70
     Davidson diagonalization with overlap
     ethr =  2.10E-07,  avg # of iterations =  3.0

     total cpu time spent up to now is       28.8 secs

     total energy              =    -921.96956425 Ry
     Harris-Foulkes estimate   =    -921.96980140 Ry
     estimated scf accuracy    <       0.00987115 Ry

     iteration # 20     ecut=    60.00 Ry     beta= 0.70
     Davidson diagonalization with overlap
     ethr =  2.10E-07,  avg # of iterations =  1.5

     total cpu time spent up to now is       29.2 secs

     total energy              =    -921.96812564 Ry
     Harris-Foulkes estimate   =    -921.96957025 Ry
     estimated scf accuracy    <       0.00912197 Ry

     iteration # 21     ecut=    60.00 Ry     beta= 0.70
     Davidson diagonalization with overlap
     ethr =  2.10E-07,  avg # of iterations =  5.0

     total cpu time spent up to now is       30.2 secs

     total energy              =    -921.96833438 Ry
     Harris-Foulkes estimate   =    -921.96861189 Ry
     estimated scf accuracy    <       0.00105126 Ry

     iteration # 22     ecut=    60.00 Ry     beta= 0.70
     Davidson diagonalization with overlap
     ethr =  2.10E-07,  avg # of iterations =  4.2

     total cpu time spent up to now is       31.1 secs

     total energy              =    -921.96847263 Ry
     Harris-Foulkes estimate   =    -921.96847434 Ry
     estimated scf accuracy    <       0.00000849 Ry

     iteration # 23     ecut=    60.00 Ry     beta= 0.70
     Davidson diagonalization with overlap
     ethr =  7.58E-09,  avg # of iterations =  3.0

     total cpu time spent up to now is       31.7 secs

     total energy              =    -921.96847264 Ry
     Harris-Foulkes estimate   =    -921.96847336 Ry
     estimated scf accuracy    <       0.00000507 Ry

     iteration # 24     ecut=    60.00 Ry     beta= 0.70
     Davidson diagonalization with overlap
     ethr =  4.53E-09,  avg # of iterations =  4.0

     total cpu time spent up to now is       32.2 secs

     total energy              =    -921.96847265 Ry
     Harris-Foulkes estimate   =    -921.96847294 Ry
     estimated scf accuracy    <       0.00000211 Ry

     iteration # 25     ecut=    60.00 Ry     beta= 0.70
     Davidson diagonalization with overlap
     ethr =  1.89E-09,  avg # of iterations =  3.8

     total cpu time spent up to now is       32.8 secs

     total energy              =    -921.96847292 Ry
     Harris-Foulkes estimate   =    -921.96847292 Ry
     estimated scf accuracy    <       0.00000011 Ry

     iteration # 26     ecut=    60.00 Ry     beta= 0.70
     Davidson diagonalization with overlap
     ethr =  9.89E-11,  avg # of iterations =  4.8

     total cpu time spent up to now is       33.5 secs

     total energy              =    -921.96847296 Ry
     Harris-Foulkes estimate   =    -921.96847296 Ry
     estimated scf accuracy    <       0.00000004 Ry

     iteration # 27     ecut=    60.00 Ry     beta= 0.70
     Davidson diagonalization with overlap
     ethr =  3.50E-11,  avg # of iterations =  4.2

     total cpu time spent up to now is       34.2 secs

     total energy              =    -921.96847295 Ry
     Harris-Foulkes estimate   =    -921.96847296 Ry
     estimated scf accuracy    <       0.00000005 Ry

     iteration # 28     ecut=    60.00 Ry     beta= 0.70
     Davidson diagonalization with overlap
     ethr =  3.50E-11,  avg # of iterations =  2.2

     total cpu time spent up to now is       34.6 secs

     total energy              =    -921.96847295 Ry
     Harris-Foulkes estimate   =    -921.96847296 Ry
     estimated scf accuracy    <       0.00000004 Ry

     iteration # 29     ecut=    60.00 Ry     beta= 0.70
     Davidson diagonalization with overlap
     ethr =  3.23E-11,  avg # of iterations =  3.8

     total cpu time spent up to now is       35.3 secs

     total energy              =    -921.96847295 Ry
     Harris-Foulkes estimate   =    -921.96847295 Ry
     estimated scf accuracy    <          1.9E-09 Ry

     iteration # 30     ecut=    60.00 Ry     beta= 0.70
     Davidson diagonalization with overlap
     ethr =  1.68E-12,  avg # of iterations =  4.8

     total cpu time spent up to now is       36.1 secs

     End of self-consistent calculation

          k = 0.0000 0.0000 0.0000 (  8783 PWs)   bands (ev):

   -58.2718 -58.2675 -58.2559 -58.2528 -32.4116 -32.4085 -32.3981 -32.3909
   -32.2798 -32.2107 -32.1716 -32.1431 -32.1397 -32.1055 -32.0955 -32.0920
   -12.3034 -12.1520 -11.0859 -10.9818 -10.8268 -10.7046 -10.3590 -10.3262
   -10.2056 -10.1362   0.9486   0.9695   0.9871   1.0539   1.3577   1.8268
     2.4504   2.5182   2.6896   2.9388   3.1168   3.1612   3.3872   3.4760
     3.5503   3.5959   3.6216   3.6839   3.6983   3.7471   3.8378   3.8872
     4.2101   4.5413   4.5466   4.5663   4.5826   4.7571   4.8897   4.9895

          k = 0.0000 0.2831 0.0000 (  8786 PWs)   bands (ev):

   -58.2707 -58.2682 -58.2560 -58.2521 -32.4184 -32.4151 -32.4085 -32.4012
   -32.2785 -32.2095 -32.1715 -32.1425 -32.1391 -32.1054 -32.0954 -32.0920
   -12.1550 -12.0228 -10.9629 -10.9226 -10.8004 -10.6665 -10.3287 -10.3023
   -10.0690 -10.0466   0.8320   0.8628   0.8797   0.9613   1.0194   1.0651
     1.5292   1.6216   1.7855   1.8045   2.4059   2.5724   2.6504   3.2123
     3.2434   3.4775   3.6911   3.8342   4.0437   4.1018   4.2908   4.3993
     4.6723   4.6751   4.6890   4.8099   4.8892   5.1773   5.2924   5.4889

          k = 0.3361 0.0000 0.0000 (  8816 PWs)   bands (ev):

   -58.2652 -58.2628 -58.2579 -58.2549 -32.4036 -32.4005 -32.3953 -32.3898
   -32.2770 -32.2438 -32.2269 -32.2170 -32.1491 -32.1448 -32.1223 -32.1050
   -11.6456 -11.4655 -10.9306 -10.7374 -10.7236 -10.6383 -10.2993 -10.2972
   -10.2571 -10.1826   0.3600   0.4558   1.1779   1.2698   1.4643   1.7409
     1.8388   2.2583   2.2887   2.6032   2.6453   2.6861   3.1803   3.1910
     3.2112   3.3769   3.4393   3.4998   3.8634   3.8706   3.8712   4.0530
     4.1815   4.2676   4.4510   4.5584   4.6369   4.7094   5.0322   5.2677

          k = 0.3361 0.2831 0.0000 (  8802 PWs)   bands (ev):

   -58.2645 -58.2620 -58.2575 -58.2550 -32.4110 -32.4078 -32.4046 -32.3990
   -32.2758 -32.2429 -32.2257 -32.2161 -32.1490 -32.1447 -32.1223 -32.1051
   -11.5126 -11.3624 -10.8495 -10.7295 -10.6697 -10.6054 -10.2212 -10.1971
   -10.0959 -10.0839   0.3451   0.4422   1.0209   1.0807   1.1601   1.2123
     1.5530   1.6109   1.6181   1.7942   1.8634   2.3211   2.5342   2.6493
     2.7886   2.8575   2.9796   3.0556   3.3191   3.7843   4.1179   4.3154
     4.5779   4.6611   5.0976   5.2105   5.3096   5.4247   5.4654   5.5084

     highest occupied level (ev):     5.5084

!    total energy              =    -921.96847295 Ry
     Harris-Foulkes estimate   =    -921.96847295 Ry
     estimated scf accuracy    <          4.3E-11 Ry

     The total energy is the sum of the following terms:

     one-electron contribution =    -528.80396178 Ry
     hartree contribution      =     310.39735779 Ry
     xc contribution           =    -174.77632988 Ry
     ewald contribution        =    -528.63736338 Ry
     Dispersion Correction     =      -0.14817571 Ry

     convergence has been achieved in  30 iterations

     Forces acting on atoms (cartesian axes, Ry/au):

     atom    1 type  1   force =     0.00000000    0.04527815    0.00618752
     atom    2 type  1   force =     0.00000000   -0.04527815   -0.00618752
     atom    3 type  1   force =     0.00000000   -0.04527815    0.00618752
     atom    4 type  1   force =     0.00000000    0.04527815   -0.00618752
     atom    5 type  2   force =     0.00000000    0.00444915   -0.00335690
     atom    6 type  2   force =     0.00000000   -0.00444915    0.00335690
     atom    7 type  2   force =     0.00000000   -0.00444915   -0.00335690
     atom    8 type  2   force =     0.00000000    0.00444915    0.00335690
     atom    9 type  2   force =     0.00000000   -0.05793348    0.00092422
     atom   10 type  2   force =     0.00000000    0.05793348   -0.00092422
     atom   11 type  2   force =    -0.00000000    0.05793348    0.00092422
     atom   12 type  2   force =     0.00000000   -0.00977207   -0.00000000
     atom   13 type  2   force =     0.00000000    0.00977207    0.00000000
     atom   14 type  2   force =     0.00000000   -0.05793348   -0.00092422

     Total force =     0.148652     Total SCF correction =     0.000021


     Computing stress (Cartesian axis) and pressure

          total   stress  (Ry/bohr**3)                   (kbar)     P=   42.87
   0.00021808   0.00000000   0.00000000         32.08      0.00      0.00
   0.00000000   0.00042268   0.00000000          0.00     62.18      0.00
   0.00000000   0.00000000   0.00023341          0.00      0.00     34.34


     number of scf cycles    =   2
     number of bfgs steps    =   1

     enthalpy old            =    -921.9660082296 Ry
     enthalpy new            =    -921.9684729533 Ry

     CASE: enthalpy_new < enthalpy_old

     new trust radius        =       0.0307920012 bohr
     new conv_thr            =            2.5E-11 Ry

     new unit-cell volume =   1084.40761 a.u.^3 (   160.69263 Ang^3 )
     density =      3.75896 g/cm^3

CELL_PARAMETERS (alat=  6.59715045)
   0.992053525   0.000000000   0.000000000
   0.000000000   1.177677010   0.000000000
   0.000000000   0.000000000   3.232675321

ATOMIC_POSITIONS (crystal)
V        0.000000000   0.378767564   0.648842521
V        0.500000004   0.621232445   0.851157492
V        0.500000004   0.621232445   0.148842517
V        0.000000000   0.378767564   0.351157488
O        0.500000004   0.492769265   0.680309544
O        0.000000000   0.507230745   0.819690468
O        0.000000000   0.507230745   0.180309541
O        0.500000004   0.492769265   0.319690464
O        0.000000000  -0.006421579   0.353561457
O        0.500000004   1.006421589   0.146438548
O        0.500000004   1.006421589   0.853561460
O        0.500000004   0.510208875  -0.000000000
O        0.000000000   0.489791133   0.500000004
O        0.000000000  -0.006421579   0.646438554



     Writing output data file v2o5.save/
     NEW-OLD atomic charge density approx. for the potential

     Check: negative core charge=   -0.000034
     extrapolated charge  112.06915, renormalised to  112.00000

     total cpu time spent up to now is       37.5 secs

     Self-consistent Calculation

     iteration #  1     ecut=    60.00 Ry     beta= 0.70
     Davidson diagonalization with overlap
     ethr =  1.00E-06,  avg # of iterations =  7.2

     total cpu time spent up to now is       39.1 secs

     total energy              =    -921.96737248 Ry
     Harris-Foulkes estimate   =    -921.70800469 Ry
     estimated scf accuracy    <       0.00885978 Ry

     iteration #  2     ecut=    60.00 Ry     beta= 0.70
     Davidson diagonalization with overlap
     ethr =  7.91E-06,  avg # of iterations =  5.2

     total cpu time spent up to now is       40.1 secs

     total energy              =    -921.95827022 Ry
     Harris-Foulkes estimate   =    -921.99209455 Ry
     estimated scf accuracy    <       0.15140554 Ry

     iteration #  3     ecut=    60.00 Ry     beta= 0.70
     Davidson diagonalization with overlap
     ethr =  7.91E-06,  avg # of iterations =  5.0

     total cpu time spent up to now is       41.3 secs

     total energy              =    -921.97368577 Ry
     Harris-Foulkes estimate   =    -921.97387180 Ry
     estimated scf accuracy    <       0.00034582 Ry

     iteration #  4     ecut=    60.00 Ry     beta= 0.70
     Davidson diagonalization with overlap
     ethr =  3.09E-07,  avg # of iterations =  4.0

     total cpu time spent up to now is       41.9 secs

     total energy              =    -921.97375046 Ry
     Harris-Foulkes estimate   =    -921.97376905 Ry
     estimated scf accuracy    <       0.00005191 Ry

     iteration #  5     ecut=    60.00 Ry     beta= 0.70
     Davidson diagonalization with overlap
     ethr =  4.64E-08,  avg # of iterations =  4.0

     total cpu time spent up to now is       42.7 secs

     total energy              =    -921.97375905 Ry
     Harris-Foulkes estimate   =    -921.97376353 Ry
     estimated scf accuracy    <       0.00001278 Ry

     iteration #  6     ecut=    60.00 Ry     beta= 0.70
     Davidson diagonalization with overlap
     ethr =  1.14E-08,  avg # of iterations =  4.5

     total cpu time spent up to now is       43.5 secs

     total energy              =    -921.97376204 Ry
     Harris-Foulkes estimate   =    -921.97376319 Ry
     estimated scf accuracy    <       0.00000339 Ry

     iteration #  7     ecut=    60.00 Ry     beta= 0.70
     Davidson diagonalization with overlap
     ethr =  3.03E-09,  avg # of iterations =  4.5

     total cpu time spent up to now is       44.2 secs

     total energy              =    -921.97376253 Ry
     Harris-Foulkes estimate   =    -921.97376273 Ry
     estimated scf accuracy    <       0.00000058 Ry

     iteration #  8     ecut=    60.00 Ry     beta= 0.70
     Davidson diagonalization with overlap
     ethr =  5.18E-10,  avg # of iterations =  4.0

     total cpu time spent up to now is       44.9 secs

     total energy              =    -921.97376261 Ry
     Harris-Foulkes estimate   =    -921.97376269 Ry
     estimated scf accuracy    <       0.00000029 Ry

     iteration #  9     ecut=    60.00 Ry     beta= 0.70
     Davidson diagonalization with overlap
     ethr =  2.57E-10,  avg # of iterations =  4.0

     total cpu time spent up to now is       45.5 secs

     total energy              =    -921.97376264 Ry
     Harris-Foulkes estimate   =    -921.97376264 Ry
     estimated scf accuracy    <       0.00000002 Ry

     iteration # 10     ecut=    60.00 Ry     beta= 0.70
     Davidson diagonalization with overlap
     ethr =  1.54E-11,  avg # of iterations =  5.0

     total cpu time spent up to now is       46.5 secs

     total energy              =    -921.97376265 Ry
     Harris-Foulkes estimate   =    -921.97376265 Ry
     estimated scf accuracy    <          5.7E-09 Ry

     iteration # 11     ecut=    60.00 Ry     beta= 0.70
     Davidson diagonalization with overlap
     ethr =  5.09E-12,  avg # of iterations =  3.2

     total cpu time spent up to now is       47.0 secs

     total energy              =    -921.97376265 Ry
     Harris-Foulkes estimate   =    -921.97376265 Ry
     estimated scf accuracy    <          1.3E-09 Ry

     iteration # 12     ecut=    60.00 Ry     beta= 0.70
     Davidson diagonalization with overlap
     ethr =  1.15E-12,  avg # of iterations =  4.0

     total cpu time spent up to now is       47.9 secs

     total energy              =    -921.97376265 Ry
     Harris-Foulkes estimate   =    -921.97376265 Ry
     estimated scf accuracy    <          4.0E-10 Ry

     iteration # 13     ecut=    60.00 Ry     beta= 0.70
     Davidson diagonalization with overlap
     ethr =  3.55E-13,  avg # of iterations =  1.8

     total cpu time spent up to now is       48.3 secs

     total energy              =    -921.97376265 Ry
     Harris-Foulkes estimate   =    -921.97376265 Ry
     estimated scf accuracy    <          1.5E-10 Ry

     iteration # 14     ecut=    60.00 Ry     beta= 0.70
     Davidson diagonalization with overlap
     ethr =  1.35E-13,  avg # of iterations =  4.0

     total cpu time spent up to now is       49.2 secs

     total energy              =    -921.97376265 Ry
     Harris-Foulkes estimate   =    -921.97376265 Ry
     estimated scf accuracy    <          1.1E-10 Ry

     iteration # 15     ecut=    60.00 Ry     beta= 0.70
     Davidson diagonalization with overlap
     ethr =  1.00E-13,  avg # of iterations =  1.0

     total cpu time spent up to now is       49.6 secs

     total energy              =    -921.97376265 Ry
     Harris-Foulkes estimate   =    -921.97376265 Ry
     estimated scf accuracy    <          6.5E-11 Ry

     iteration # 16     ecut=    60.00 Ry     beta= 0.70
     Davidson diagonalization with overlap
     ethr =  1.00E-13,  avg # of iterations =  2.5

     total cpu time spent up to now is       50.0 secs

     End of self-consistent calculation

          k = 0.0000 0.0000 0.0000 (  8783 PWs)   bands (ev):

   -58.3438 -58.3396 -58.3271 -58.3241 -32.3983 -32.3881 -32.3790 -32.3683
   -32.3561 -32.2952 -32.2510 -32.2355 -32.2322 -32.1894 -32.1858 -32.1824
   -12.3759 -12.2266 -11.1481 -11.0729 -10.9059 -10.7569 -10.3113 -10.2889
   -10.1517 -10.0933   0.8574   0.8999   0.9185   0.9744   1.2967   1.8148
     2.3730   2.6037   2.6451   3.0256   3.1579   3.2067   3.5260   3.5436
     3.5530   3.5698   3.6886   3.7074   3.8818   3.8978   3.9537   4.0099
     4.3345   4.4923   4.5923   4.6272   4.6591   4.7508   4.8330   4.9935

          k = 0.0000 0.2830 0.0000 (  8786 PWs)   bands (ev):

   -58.3426 -58.3402 -58.3273 -58.3235 -32.4037 -32.3947 -32.3891 -32.3785
   -32.3563 -32.2942 -32.2512 -32.2349 -32.2316 -32.1893 -32.1857 -32.1824
   -12.2401 -12.1088 -11.0516 -11.0236 -10.8699 -10.7240 -10.2737 -10.2428
   -10.0063  -9.9793   0.7888   0.8091   0.8267   0.8986   0.9954   1.1117
     1.5134   1.6738   1.7741   1.8874   2.4479   2.6533   2.7338   3.2791
     3.3350   3.4631   3.6296   3.7713   4.0256   4.2645   4.4070   4.4429
     4.6130   4.7102   4.7356   4.8244   4.8458   5.2100   5.2741   5.5561

          k = 0.3360 0.0000 0.0000 (  8816 PWs)   bands (ev):

   -58.3371 -58.3346 -58.3292 -58.3265 -32.3894 -32.3823 -32.3734 -32.3664
   -32.3569 -32.3344 -32.3116 -32.3093 -32.2337 -32.2327 -32.2104 -32.1905
   -11.7091 -11.5321 -10.9839 -10.8250 -10.7942 -10.6926 -10.2485 -10.2337
   -10.2182 -10.1418   0.2649   0.3586   1.1026   1.1886   1.4041   1.6762
     1.7649   2.1929   2.2697   2.6532   2.6574   2.8161   3.2604   3.2940
     3.2981   3.4786   3.4889   3.4935   3.8935   3.9752   3.9772   4.1099
     4.2645   4.3983   4.5151   4.5658   4.6873   4.7626   4.9677   5.2023

          k = 0.3360 0.2830 0.0000 (  8802 PWs)   bands (ev):

   -58.3364 -58.3339 -58.3289 -58.3265 -32.3950 -32.3892 -32.3824 -32.3755
   -32.3576 -32.3337 -32.3109 -32.3085 -32.2337 -32.2326 -32.2104 -32.1905
   -11.5902 -11.4408 -10.9250 -10.8170 -10.7368 -10.6637 -10.1627 -10.1348
   -10.0332 -10.0144   0.2509   0.3459   0.9819   1.0621   1.1452   1.2504
     1.4995   1.5699   1.6019   1.8447   1.9058   2.2952   2.5817   2.6287
     2.8277   2.8644   2.9952   3.0808   3.3929   3.8897   4.1410   4.3967
     4.6144   4.6725   5.1539   5.2460   5.3247   5.4221   5.4741   5.5294

     highest occupied level (ev):     5.5561

!    total energy              =    -921.97376265 Ry
     Harris-Foulkes estimate   =    -921.97376265 Ry
     estimated scf accuracy    <          2.1E-11 Ry

     The total energy is the sum of the following terms:

     one-electron contribution =    -526.15046683 Ry
     hartree contribution      =     308.93568108 Ry
     xc contribution           =    -174.64450548 Ry
     ewald contribution        =    -529.96706513 Ry
     Dispersion Correction     =      -0.14740629 Ry

     convergence has been achieved in  16 iterations

     Forces acting on atoms (cartesian axes, Ry/au):

     atom    1 type  1   force =    -0.00000000   -0.01295028   -0.00024384
     atom    2 type  1   force =     0.00000000    0.01295028    0.00024384
     atom    3 type  1   force =     0.00000000    0.01295028   -0.00024384
     atom    4 type  1   force =     0.00000000   -0.01295028    0.00024384
     atom    5 type  2   force =     0.00000000    0.00455287   -0.00277783
     atom    6 type  2   force =     0.00000000   -0.00455287    0.00277783
     atom    7 type  2   force =     0.00000000   -0.00455287   -0.00277783
     atom    8 type  2   force =     0.00000000    0.00455287    0.00277783
     atom    9 type  2   force =     0.00000000   -0.00080270   -0.00012541
     atom   10 type  2   force =     0.00000000    0.00080270    0.00012541
     atom   11 type  2   force =    -0.00000000    0.00080270   -0.00012541
     atom   12 type  2   force =     0.00000000   -0.00802012    0.00000000
     atom   13 type  2   force =     0.00000000    0.00802012   -0.00000000
     atom   14 type  2   force =    -0.00000000   -0.00080270    0.00012541

     Total force =     0.030268     Total SCF correction =     0.000014


     Computing stress (Cartesian axis) and pressure

          total   stress  (Ry/bohr**3)                   (kbar)     P=   12.02
   0.00024679   0.00000000   0.00000000         36.30      0.00      0.00
   0.00000000  -0.00023786   0.00000000          0.00    -34.99      0.00
   0.00000000   0.00000000   0.00023615          0.00      0.00     34.74


     number of scf cycles    =   3
     number of bfgs steps    =   2

     enthalpy old            =    -921.9684729533 Ry
     enthalpy new            =    -921.9737626474 Ry

     CASE: enthalpy_new < enthalpy_old

     new trust radius        =       0.0401165922 bohr
     new conv_thr            =            5.3E-11 Ry

     new unit-cell volume =   1092.46516 a.u.^3 (   161.88663 Ang^3 )
     density =      3.73124 g/cm^3

CELL_PARAMETERS (alat=  6.59715045)
   0.998096251   0.000000000   0.000000000
   0.000000000   1.172346607   0.000000000
   0.000000000   0.000000000   3.251696292

ATOMIC_POSITIONS (crystal)
V        0.000000000   0.378479218   0.648897202
V        0.500000004   0.621520791   0.851102811
V        0.500000004   0.621520791   0.148897197
V        0.000000000   0.378479218   0.351102807
O        0.500000004   0.493417312   0.680160625
O        0.000000000   0.506582697   0.819839387
O        0.000000000   0.506582697   0.180160621
O        0.500000004   0.493417312   0.319839383
O        0.000000000  -0.008062109   0.353564886
O        0.500000004   1.008062119   0.146435120
O        0.500000004   1.008062119   0.853564889
O        0.500000004   0.509014205  -0.000000000
O        0.000000000   0.490985804   0.500000004
O       -0.000000000  -0.008062109   0.646435125



     Writing output data file v2o5.save/
     NEW-OLD atomic charge density approx. for the potential

     Check: negative core charge=   -0.000036
     extrapolated charge  112.82603, renormalised to  112.00000

     total cpu time spent up to now is       51.4 secs

     Self-consistent Calculation

     iteration #  1     ecut=    60.00 Ry     beta= 0.70
     Davidson diagonalization with overlap
     ethr =  1.00E-06,  avg # of iterations =  9.0

     total cpu time spent up to now is       53.4 secs

     total energy              =    -921.82779240 Ry
     Harris-Foulkes estimate   =    -918.80821419 Ry
     estimated scf accuracy    <       0.14316753 Ry

     iteration #  2     ecut=    60.00 Ry     beta= 0.70
     Davidson diagonalization with overlap
     ethr =  1.28E-04,  avg # of iterations =  6.8

     total cpu time spent up to now is       54.6 secs

     total energy              =    -921.58231869 Ry
     Harris-Foulkes estimate   =    -922.47508687 Ry
     estimated scf accuracy    <       5.19281583 Ry

     iteration #  3     ecut=    60.00 Ry     beta= 0.70
     Davidson diagonalization with overlap
     ethr =  1.28E-04,  avg # of iterations =  5.0

     total cpu time spent up to now is       55.8 secs

     total energy              =    -921.97793209 Ry
     Harris-Foulkes estimate   =    -921.98744124 Ry
     estimated scf accuracy    <       0.05042868 Ry

     iteration #  4     ecut=    60.00 Ry     beta= 0.70
     Davidson diagonalization with overlap
     ethr =  4.50E-05,  avg # of iterations =  2.8

     total cpu time spent up to now is       56.2 secs

     total energy              =    -921.97681788 Ry
     Harris-Foulkes estimate   =    -921.97982066 Ry
     estimated scf accuracy    <       0.02848117 Ry

     iteration #  5     ecut=    60.00 Ry     beta= 0.70
     Davidson diagonalization with overlap
     ethr =  2.54E-05,  avg # of iterations =  1.8

     total cpu time spent up to now is       56.7 secs

     total energy              =    -921.97588324 Ry
     Harris-Foulkes estimate   =    -921.97749754 Ry
     estimated scf accuracy    <       0.02010164 Ry

     iteration #  6     ecut=    60.00 Ry     beta= 0.70
     Davidson diagonalization with overlap
     ethr =  1.79E-05,  avg # of iterations =  1.0

     total cpu time spent up to now is       57.1 secs

     total energy              =    -921.97531467 Ry
     Harris-Foulkes estimate   =    -921.97627367 Ry
     estimated scf accuracy    <       0.01493681 Ry

     iteration #  7     ecut=    60.00 Ry     beta= 0.70
     Davidson diagonalization with overlap
     ethr =  1.33E-05,  avg # of iterations =  2.8

     total cpu time spent up to now is       57.5 secs

     total energy              =    -921.97559830 Ry
     Harris-Foulkes estimate   =    -921.97586947 Ry
     estimated scf accuracy    <       0.00912715 Ry

     iteration #  8     ecut=    60.00 Ry     beta= 0.70
     Davidson diagonalization with overlap
     ethr =  8.15E-06,  avg # of iterations =  3.0

     total cpu time spent up to now is       58.0 secs

     total energy              =    -921.97576083 Ry
     Harris-Foulkes estimate   =    -921.97601071 Ry
     estimated scf accuracy    <       0.00601691 Ry

     iteration #  9     ecut=    60.00 Ry     beta= 0.70
     Davidson diagonalization with overlap
     ethr =  5.37E-06,  avg # of iterations =  3.2

     total cpu time spent up to now is       58.5 secs

     total energy              =    -921.97602907 Ry
     Harris-Foulkes estimate   =    -921.97619550 Ry
     estimated scf accuracy    <       0.00274047 Ry

     iteration # 10     ecut=    60.00 Ry     beta= 0.70
     Davidson diagonalization with overlap
     ethr =  2.45E-06,  avg # of iterations =  4.0

     total cpu time spent up to now is       59.2 secs

     total energy              =    -921.97640337 Ry
     Harris-Foulkes estimate   =    -921.97653560 Ry
     estimated scf accuracy    <       0.00066173 Ry

     iteration # 11     ecut=    60.00 Ry     beta= 0.70
     Davidson diagonalization with overlap
     ethr =  5.91E-07,  avg # of iterations =  5.0

     total cpu time spent up to now is       60.2 secs

     total energy              =    -921.97695256 Ry
     Harris-Foulkes estimate   =    -921.97779264 Ry
     estimated scf accuracy    <       0.01088112 Ry

     iteration # 12     ecut=    60.00 Ry     beta= 0.70
     Davidson diagonalization with overlap
     ethr =  5.91E-07,  avg # of iterations =  4.0

     total cpu time spent up to now is       61.0 secs

     total energy              =    -921.97757117 Ry
     Harris-Foulkes estimate   =    -921.97715908 Ry
     estimated scf accuracy    <       0.00577959 Ry

     iteration # 13     ecut=    60.00 Ry     beta= 0.70
     Davidson diagonalization with overlap
     ethr =  5.91E-07,  avg # of iterations =  2.0

     total cpu time spent up to now is       61.4 secs

     total energy              =    -921.97789343 Ry
     Harris-Foulkes estimate   =    -921.97759235 Ry
     estimated scf accuracy    <       0.00735708 Ry

     iteration # 14     ecut=    60.00 Ry     beta= 0.70
     Davidson diagonalization with overlap
     ethr =  5.91E-07,  avg # of iterations =  3.2

     total cpu time spent up to now is       62.0 secs

     total energy              =    -921.97811720 Ry
     Harris-Foulkes estimate   =    -921.97794155 Ry
     estimated scf accuracy    <       0.00960001 Ry

     iteration # 15     ecut=    60.00 Ry     beta= 0.70
     Davidson diagonalization with overlap
     ethr =  5.91E-07,  avg # of iterations =  2.0

     total cpu time spent up to now is       62.4 secs

     total energy              =    -921.97679608 Ry
     Harris-Foulkes estimate   =    -921.97813992 Ry
     estimated scf accuracy    <       0.01059049 Ry

     iteration # 16     ecut=    60.00 Ry     beta= 0.70
     Davidson diagonalization with overlap
     ethr =  5.91E-07,  avg # of iterations =  4.5

     total cpu time spent up to now is       63.1 secs

     total energy              =    -921.97671383 Ry
     Harris-Foulkes estimate   =    -921.97695203 Ry
     estimated scf accuracy    <       0.00498040 Ry

     iteration # 17     ecut=    60.00 Ry     beta= 0.70
     Davidson diagonalization with overlap
     ethr =  5.91E-07,  avg # of iterations =  3.2

     total cpu time spent up to now is       63.6 secs

     total energy              =    -921.97754007 Ry
     Harris-Foulkes estimate   =    -921.97674107 Ry
     estimated scf accuracy    <       0.00410623 Ry

     iteration # 18     ecut=    60.00 Ry     beta= 0.70
     Davidson diagonalization with overlap
     ethr =  5.91E-07,  avg # of iterations =  4.5

     total cpu time spent up to now is       64.5 secs

     total energy              =    -921.97464357 Ry
     Harris-Foulkes estimate   =    -921.97774271 Ry
     estimated scf accuracy    <       0.01065271 Ry

     iteration # 19     ecut=    60.00 Ry     beta= 0.70
     Davidson diagonalization with overlap
     ethr =  5.91E-07,  avg # of iterations =  5.0

     total cpu time spent up to now is       65.5 secs

     total energy              =    -921.97633777 Ry
     Harris-Foulkes estimate   =    -921.97643383 Ry
     estimated scf accuracy    <       0.00058688 Ry

     iteration # 20     ecut=    60.00 Ry     beta= 0.70
     Davidson diagonalization with overlap
     ethr =  5.24E-07,  avg # of iterations =  1.0

     total cpu time spent up to now is       65.9 secs

     total energy              =    -921.97629949 Ry
     Harris-Foulkes estimate   =    -921.97635198 Ry
     estimated scf accuracy    <       0.00036005 Ry

     iteration # 21     ecut=    60.00 Ry     beta= 0.70
     Davidson diagonalization with overlap
     ethr =  3.21E-07,  avg # of iterations =  3.2

     total cpu time spent up to now is       66.4 secs

     total energy              =    -921.97632318 Ry
     Harris-Foulkes estimate   =    -921.97633235 Ry
     estimated scf accuracy    <       0.00003877 Ry

     iteration # 22     ecut=    60.00 Ry     beta= 0.70
     Davidson diagonalization with overlap
     ethr =  3.46E-08,  avg # of iterations =  4.5

     total cpu time spent up to now is       67.3 secs

     total energy              =    -921.97634703 Ry
     Harris-Foulkes estimate   =    -921.97635156 Ry
     estimated scf accuracy    <       0.00002963 Ry

     iteration # 23     ecut=    60.00 Ry     beta= 0.70
     Davidson diagonalization with overlap
     ethr =  2.65E-08,  avg # of iterations =  1.0

     total cpu time spent up to now is       67.7 secs

     total energy              =    -921.97634470 Ry
     Harris-Foulkes estimate   =    -921.97634754 Ry
     estimated scf accuracy    <       0.00001802 Ry

     iteration # 24     ecut=    60.00 Ry     beta= 0.70
     Davidson diagonalization with overlap
     ethr =  1.61E-08,  avg # of iterations =  3.8

     total cpu time spent up to now is       68.2 secs

     total energy              =    -921.97634596 Ry
     Harris-Foulkes estimate   =    -921.97634640 Ry
     estimated scf accuracy    <       0.00000218 Ry

     iteration # 25     ecut=    60.00 Ry     beta= 0.70
     Davidson diagonalization with overlap
     ethr =  1.95E-09,  avg # of iterations =  5.0

     total cpu time spent up to now is       69.1 secs

     total energy              =    -921.97634739 Ry
     Harris-Foulkes estimate   =    -921.97634754 Ry
     estimated scf accuracy    <       0.00000132 Ry

     iteration # 26     ecut=    60.00 Ry     beta= 0.70
     Davidson diagonalization with overlap
     ethr =  1.18E-09,  avg # of iterations =  1.0

     total cpu time spent up to now is       69.5 secs

     total energy              =    -921.97634710 Ry
     Harris-Foulkes estimate   =    -921.97634740 Ry
     estimated scf accuracy    <       0.00000095 Ry

     iteration # 27     ecut=    60.00 Ry     beta= 0.70
     Davidson diagonalization with overlap
     ethr =  8.49E-10,  avg # of iterations =  4.0

     total cpu time spent up to now is       70.3 secs

     total energy              =    -921.97634736 Ry
     Harris-Foulkes estimate   =    -921.97634740 Ry
     estimated scf accuracy    <       0.00000039 Ry

     iteration # 28     ecut=    60.00 Ry     beta= 0.70
     Davidson diagonalization with overlap
     ethr =  3.47E-10,  avg # of iterations =  1.0

     total cpu time spent up to now is       70.7 secs

     total energy              =    -921.97634732 Ry
     Harris-Foulkes estimate   =    -921.97634737 Ry
     estimated scf accuracy    <       0.00000030 Ry

     iteration # 29     ecut=    60.00 Ry     beta= 0.70
     Davidson diagonalization with overlap
     ethr =  2.64E-10,  avg # of iterations =  3.0

     total cpu time spent up to now is       71.2 secs

     total energy              =    -921.97634735 Ry
     Harris-Foulkes estimate   =    -921.97634734 Ry
     estimated scf accuracy    <       0.00000006 Ry

     iteration # 30     ecut=    60.00 Ry     beta= 0.70
     Davidson diagonalization with overlap
     ethr =  5.31E-11,  avg # of iterations =  4.5

     total cpu time spent up to now is       71.8 secs

     total energy              =    -921.97634735 Ry
     Harris-Foulkes estimate   =    -921.97634735 Ry
     estimated scf accuracy    <       0.00000004 Ry

     iteration # 31     ecut=    60.00 Ry     beta= 0.70
     Davidson diagonalization with overlap
     ethr =  3.23E-11,  avg # of iterations =  4.0

     total cpu time spent up to now is       72.4 secs

     total energy              =    -921.97634735 Ry
     Harris-Foulkes estimate   =    -921.97634735 Ry
     estimated scf accuracy    <       0.00000002 Ry

     iteration # 32     ecut=    60.00 Ry     beta= 0.70
     Davidson diagonalization with overlap
     ethr =  1.96E-11,  avg # of iterations =  3.2

     total cpu time spent up to now is       72.9 secs

     total energy              =    -921.97634735 Ry
     Harris-Foulkes estimate   =    -921.97634735 Ry
     estimated scf accuracy    <       0.00000001 Ry

     iteration # 33     ecut=    60.00 Ry     beta= 0.70
     Davidson diagonalization with overlap
     ethr =  1.01E-11,  avg # of iterations =  3.8

     total cpu time spent up to now is       73.4 secs

     total energy              =    -921.97634735 Ry
     Harris-Foulkes estimate   =    -921.97634735 Ry
     estimated scf accuracy    <          6.2E-09 Ry

     iteration # 34     ecut=    60.00 Ry     beta= 0.70
     Davidson diagonalization with overlap
     ethr =  5.49E-12,  avg # of iterations =  2.8

     total cpu time spent up to now is       73.9 secs

     total energy              =    -921.97634735 Ry
     Harris-Foulkes estimate   =    -921.97634735 Ry
     estimated scf accuracy    <          2.0E-09 Ry

     iteration # 35     ecut=    60.00 Ry     beta= 0.70
     Davidson diagonalization with overlap
     ethr =  1.80E-12,  avg # of iterations =  4.0

     total cpu time spent up to now is       74.5 secs

     total energy              =    -921.97634735 Ry
     Harris-Foulkes estimate   =    -921.97634735 Ry
     estimated scf accuracy    <          3.1E-10 Ry

     iteration # 36     ecut=    60.00 Ry     beta= 0.70
     Davidson diagonalization with overlap
     ethr =  2.81E-13,  avg # of iterations =  5.0

     total cpu time spent up to now is       75.4 secs

     total energy              =    -921.97634735 Ry
     Harris-Foulkes estimate   =    -921.97634735 Ry
     estimated scf accuracy    <          1.9E-10 Ry

     iteration # 37     ecut=    60.00 Ry     beta= 0.70
     Davidson diagonalization with overlap
     ethr =  1.72E-13,  avg # of iterations =  1.5

     total cpu time spent up to now is       75.8 secs

     total energy              =    -921.97634735 Ry
     Harris-Foulkes estimate   =    -921.97634735 Ry
     estimated scf accuracy    <          8.4E-11 Ry

     iteration # 38     ecut=    60.00 Ry     beta= 0.70
     Davidson diagonalization with overlap
     ethr =  1.00E-13,  avg # of iterations =  4.2

     total cpu time spent up to now is       76.4 secs

     End of self-consistent calculation

          k = 0.0000 0.0000 0.0000 (  8783 PWs)   bands (ev):

   -58.4618 -58.4576 -58.4462 -58.4435 -32.5152 -32.5101 -32.5002 -32.4922
   -32.4580 -32.3974 -32.3566 -32.3419 -32.3389 -32.2979 -32.2952 -32.2920
   -12.3876 -12.2416 -11.1973 -11.1074 -10.9314 -10.7993 -10.4301 -10.3942
   -10.2870 -10.2122   0.8734   0.9038   0.9203   0.9965   1.2759   1.7896
     2.3693   2.5793   2.5828   2.9865   3.1029   3.1491   3.4157   3.4375
     3.5376   3.5542   3.5894   3.6365   3.7448   3.7598   3.8941   3.9014
     4.2232   4.4485   4.4821   4.5067   4.5117   4.6757   4.7841   4.8992

          k = 0.0000 0.2843 0.0000 (  8786 PWs)   bands (ev):

   -58.4605 -58.4584 -58.4465 -58.4428 -32.5222 -32.5173 -32.5108 -32.5028
   -32.4572 -32.3963 -32.3565 -32.3413 -32.3383 -32.2977 -32.2950 -32.2920
   -12.2407 -12.1138 -11.0823 -11.0493 -10.8954 -10.7598 -10.3873 -10.3626
   -10.1330 -10.1130   0.7826   0.8045   0.8202   0.9147   0.9800   1.0474
     1.4395   1.5847   1.7289   1.8154   2.3309   2.5613   2.6396   3.1636
     3.2227   3.4332   3.6234   3.6992   3.9506   4.1302   4.2907   4.3301
     4.5621   4.5950   4.6178   4.7457   4.7874   5.1516   5.1998   5.4746

          k = 0.3340 0.0000 0.0000 (  8816 PWs)   bands (ev):

   -58.4555 -58.4534 -58.4484 -58.4459 -32.5071 -32.5036 -32.4962 -32.4909
   -32.4584 -32.4333 -32.4143 -32.4102 -32.3396 -32.3386 -32.3173 -32.2986
   -11.7405 -11.5678 -11.0254 -10.8645 -10.8470 -10.7398 -10.3786 -10.3748
   -10.3297 -10.2588   0.2729   0.3558   1.1130   1.1851   1.3874   1.6431
     1.7368   2.1986   2.2366   2.6058   2.6339   2.7556   3.1973   3.2137
     3.2158   3.3750   3.4024   3.4474   3.8055   3.8613   3.8904   4.0084
     4.1645   4.3114   4.4432   4.4819   4.5571   4.6480   4.9117   5.1537

          k = 0.3340 0.2843 0.0000 (  8802 PWs)   bands (ev):

   -58.4548 -58.4526 -58.4481 -58.4459 -32.5147 -32.5113 -32.5059 -32.5004
   -32.4577 -32.4325 -32.4133 -32.4093 -32.3395 -32.3385 -32.3172 -32.2986
   -11.6100 -11.4670 -10.9524 -10.8556 -10.7833 -10.7040 -10.2828 -10.2614
   -10.1600 -10.1495   0.2575   0.3424   0.9738   1.0373   1.1141   1.1927
     1.4585   1.5359   1.5398   1.7676   1.8140   2.2357   2.4633   2.5912
     2.7237   2.7851   2.8968   3.0045   3.2803   3.7757   4.0836   4.2915
     4.4936   4.6013   5.0797   5.1753   5.2660   5.3556   5.4095   5.4540

     highest occupied level (ev):     5.4746

!    total energy              =    -921.97634735 Ry
     Harris-Foulkes estimate   =    -921.97634735 Ry
     estimated scf accuracy    <          1.3E-11 Ry

     The total energy is the sum of the following terms:

     one-electron contribution =    -526.14445000 Ry
     hartree contribution      =     308.53885857 Ry
     xc contribution           =    -174.54265697 Ry
     ewald contribution        =    -529.68186991 Ry
     Dispersion Correction     =      -0.14622905 Ry

     convergence has been achieved in  38 iterations

     Forces acting on atoms (cartesian axes, Ry/au):

     atom    1 type  1   force =    -0.00000000   -0.00114396   -0.00453364
     atom    2 type  1   force =     0.00000000    0.00114396    0.00453364
     atom    3 type  1   force =     0.00000000    0.00114396   -0.00453364
     atom    4 type  1   force =    -0.00000000   -0.00114396    0.00453364
     atom    5 type  2   force =    -0.00000000    0.00136381    0.00011986
     atom    6 type  2   force =     0.00000000   -0.00136381   -0.00011986
     atom    7 type  2   force =     0.00000000   -0.00136381    0.00011986
     atom    8 type  2   force =     0.00000000    0.00136381   -0.00011986
     atom    9 type  2   force =     0.00000000   -0.00215612   -0.00097014
     atom   10 type  2   force =    -0.00000000    0.00215612    0.00097014
     atom   11 type  2   force =     0.00000000    0.00215612   -0.00097014
     atom   12 type  2   force =     0.00000000   -0.00057681    0.00000000
     atom   13 type  2   force =     0.00000000    0.00057681   -0.00000000
     atom   14 type  2   force =     0.00000000   -0.00215612    0.00097014

     Total force =     0.010862     Total SCF correction =     0.000015


     Computing stress (Cartesian axis) and pressure

          total   stress  (Ry/bohr**3)                   (kbar)     P=  -17.16
  -0.00004361   0.00000000   0.00000000         -6.42      0.00      0.00
   0.00000000  -0.00022617   0.00000000          0.00    -33.27      0.00
   0.00000000   0.00000000  -0.00008009          0.00      0.00    -11.78


     number of scf cycles    =   4
     number of bfgs steps    =   3

     enthalpy old            =    -921.9737626474 Ry
     enthalpy new            =    -921.9763473518 Ry

     CASE: enthalpy_new < enthalpy_old

     new trust radius        =       0.0578084295 bohr
     new conv_thr            =            2.6E-11 Ry

     new unit-cell volume =   1085.06359 a.u.^3 (   160.78983 Ang^3 )
     density =      3.75669 g/cm^3

CELL_PARAMETERS (alat=  6.59715045)
   0.999642539   0.000000000   0.000000000
   0.000000000   1.162094494   0.000000000
   0.000000000   0.000000000   3.253118282

ATOMIC_POSITIONS (crystal)
V        0.000000000   0.379285484   0.648753516
V        0.500000004   0.620714525   0.851246497
V        0.500000004   0.620714525   0.148753511
V        0.000000000   0.379285484   0.351246493
O        0.500000004   0.494027986   0.680070435
O        0.000000000   0.505972024   0.819929577
O        0.000000000   0.505972024   0.180070432
O        0.500000004   0.494027986   0.319929573
O        0.000000000  -0.010553811   0.353524460
O        0.500000004   1.010553821   0.146475546
O        0.500000004   1.010553821   0.853524463
O        0.500000004   0.508114421  -0.000000000
O        0.000000000   0.491885588   0.500000004
O       -0.000000000  -0.010553811   0.646475551



     Writing output data file v2o5.save/
     NEW-OLD atomic charge density approx. for the potential

     Check: negative core charge=   -0.000035
     extrapolated charge  111.23604, renormalised to  112.00000

     total cpu time spent up to now is       77.8 secs

     Self-consistent Calculation

     iteration #  1     ecut=    60.00 Ry     beta= 0.70
     Davidson diagonalization with overlap
     ethr =  1.00E-06,  avg # of iterations =  9.0

     total cpu time spent up to now is       79.9 secs

     total energy              =    -921.83636630 Ry
     Harris-Foulkes estimate   =    -924.91567813 Ry
     estimated scf accuracy    <       0.13502465 Ry

     iteration #  2     ecut=    60.00 Ry     beta= 0.70
     Davidson diagonalization with overlap
     ethr =  1.21E-04,  avg # of iterations =  5.0

     total cpu time spent up to now is       80.9 secs

     total energy              =    -921.83853362 Ry
     Harris-Foulkes estimate   =    -922.33565316 Ry
     estimated scf accuracy    <       2.04978068 Ry

     iteration #  3     ecut=    60.00 Ry     beta= 0.70
     Davidson diagonalization with overlap
     ethr =  1.21E-04,  avg # of iterations =  5.0

     total cpu time spent up to now is       82.1 secs

     total energy              =    -921.98217388 Ry
     Harris-Foulkes estimate   =    -921.99701077 Ry
     estimated scf accuracy    <       0.10665577 Ry

     iteration #  4     ecut=    60.00 Ry     beta= 0.70
     Davidson diagonalization with overlap
     ethr =  9.52E-05,  avg # of iterations =  1.0

     total cpu time spent up to now is       82.5 secs

     total energy              =    -921.97386340 Ry
     Harris-Foulkes estimate   =    -921.98346760 Ry
     estimated scf accuracy    <       0.07539709 Ry

     iteration #  5     ecut=    60.00 Ry     beta= 0.70
     Davidson diagonalization with overlap
     ethr =  6.73E-05,  avg # of iterations =  3.0

     total cpu time spent up to now is       83.0 secs

     total energy              =    -921.97608640 Ry
     Harris-Foulkes estimate   =    -921.97658589 Ry
     estimated scf accuracy    <       0.02875412 Ry

     iteration #  6     ecut=    60.00 Ry     beta= 0.70
     Davidson diagonalization with overlap
     ethr =  2.57E-05,  avg # of iterations =  4.0

     total cpu time spent up to now is       83.5 secs

     total energy              =    -921.97768884 Ry
     Harris-Foulkes estimate   =    -921.97786144 Ry
     estimated scf accuracy    <       0.01782012 Ry

     iteration #  7     ecut=    60.00 Ry     beta= 0.70
     Davidson diagonalization with overlap
     ethr =  1.59E-05,  avg # of iterations =  1.0

     total cpu time spent up to now is       83.9 secs

     total energy              =    -921.97806952 Ry
     Harris-Foulkes estimate   =    -921.97803746 Ry
     estimated scf accuracy    <       0.01487141 Ry

     iteration #  8     ecut=    60.00 Ry     beta= 0.70
     Davidson diagonalization with overlap
     ethr =  1.33E-05,  avg # of iterations =  1.0

     total cpu time spent up to now is       84.3 secs

     total energy              =    -921.97831644 Ry
     Harris-Foulkes estimate   =    -921.97829132 Ry
     estimated scf accuracy    <       0.01372296 Ry

     iteration #  9     ecut=    60.00 Ry     beta= 0.70
     Davidson diagonalization with overlap
     ethr =  1.23E-05,  avg # of iterations =  1.0

     total cpu time spent up to now is       84.7 secs

     total energy              =    -921.97788387 Ry
     Harris-Foulkes estimate   =    -921.97848097 Ry
     estimated scf accuracy    <       0.01214611 Ry

     iteration # 10     ecut=    60.00 Ry     beta= 0.70
     Davidson diagonalization with overlap
     ethr =  1.08E-05,  avg # of iterations =  1.0

     total cpu time spent up to now is       85.1 secs

     total energy              =    -921.97301312 Ry
     Harris-Foulkes estimate   =    -921.97807784 Ry
     estimated scf accuracy    <       0.00936414 Ry

     iteration # 11     ecut=    60.00 Ry     beta= 0.70
     Davidson diagonalization with overlap
     ethr =  8.36E-06,  avg # of iterations =  5.0

     total cpu time spent up to now is       86.2 secs

     total energy              =    -921.98004332 Ry
     Harris-Foulkes estimate   =    -921.98314850 Ry
     estimated scf accuracy    <       0.04141256 Ry

     iteration # 12     ecut=    60.00 Ry     beta= 0.70
     Davidson diagonalization with overlap
     ethr =  8.36E-06,  avg # of iterations =  1.0

     total cpu time spent up to now is       86.6 secs

     total energy              =    -921.97997004 Ry
     Harris-Foulkes estimate   =    -921.98021817 Ry
     estimated scf accuracy    <       0.03093838 Ry

     iteration # 13     ecut=    60.00 Ry     beta= 0.70
     Davidson diagonalization with overlap
     ethr =  8.36E-06,  avg # of iterations =  1.0

     total cpu time spent up to now is       87.0 secs

     total energy              =    -921.97127589 Ry
     Harris-Foulkes estimate   =    -921.98007011 Ry
     estimated scf accuracy    <       0.02948432 Ry

     iteration # 14     ecut=    60.00 Ry     beta= 0.70
     Davidson diagonalization with overlap
     ethr =  8.36E-06,  avg # of iterations =  4.8

     total cpu time spent up to now is       87.9 secs

     total energy              =    -921.97744855 Ry
     Harris-Foulkes estimate   =    -921.97899850 Ry
     estimated scf accuracy    <       0.00759704 Ry

     iteration # 15     ecut=    60.00 Ry     beta= 0.70
     Davidson diagonalization with overlap
     ethr =  6.78E-06,  avg # of iterations =  2.0

     total cpu time spent up to now is       88.4 secs

     total energy              =    -921.97763464 Ry
     Harris-Foulkes estimate   =    -921.97769084 Ry
     estimated scf accuracy    <       0.00283083 Ry

     iteration # 16     ecut=    60.00 Ry     beta= 0.70
     Davidson diagonalization with overlap
     ethr =  2.53E-06,  avg # of iterations =  4.0

     total cpu time spent up to now is       88.9 secs

     total energy              =    -921.97785252 Ry
     Harris-Foulkes estimate   =    -921.97787970 Ry
     estimated scf accuracy    <       0.00104459 Ry

     iteration # 17     ecut=    60.00 Ry     beta= 0.70
     Davidson diagonalization with overlap
     ethr =  9.33E-07,  avg # of iterations =  4.0

     total cpu time spent up to now is       89.5 secs

     total energy              =    -921.97792359 Ry
     Harris-Foulkes estimate   =    -921.97802007 Ry
     estimated scf accuracy    <       0.00013782 Ry

     iteration # 18     ecut=    60.00 Ry     beta= 0.70
     Davidson diagonalization with overlap
     ethr =  1.23E-07,  avg # of iterations =  5.2

     total cpu time spent up to now is       90.6 secs

     total energy              =    -921.97847285 Ry
     Harris-Foulkes estimate   =    -921.97857473 Ry
     estimated scf accuracy    <       0.00422645 Ry

     iteration # 19     ecut=    60.00 Ry     beta= 0.70
     Davidson diagonalization with overlap
     ethr =  1.23E-07,  avg # of iterations =  1.0

     total cpu time spent up to now is       91.0 secs

     total energy              =    -921.97847843 Ry
     Harris-Foulkes estimate   =    -921.97847552 Ry
     estimated scf accuracy    <       0.00397579 Ry

     iteration # 20     ecut=    60.00 Ry     beta= 0.70
     Davidson diagonalization with overlap
     ethr =  1.23E-07,  avg # of iterations =  1.0

     total cpu time spent up to now is       91.4 secs

     total energy              =    -921.97832219 Ry
     Harris-Foulkes estimate   =    -921.97847940 Ry
     estimated scf accuracy    <       0.00392616 Ry

     iteration # 21     ecut=    60.00 Ry     beta= 0.70
     Davidson diagonalization with overlap
     ethr =  1.23E-07,  avg # of iterations =  4.0

     total cpu time spent up to now is       92.0 secs

     total energy              =    -921.97823494 Ry
     Harris-Foulkes estimate   =    -921.97833836 Ry
     estimated scf accuracy    <       0.00282642 Ry

     iteration # 22     ecut=    60.00 Ry     beta= 0.70
     Davidson diagonalization with overlap
[...]

     iteration # 13     ecut=    60.00 Ry     beta= 0.70
     Davidson diagonalization with overlap
     ethr =  5.19E-08,  avg # of iterations =  4.2

     total cpu time spent up to now is      398.7 secs

     total energy              =    -921.94256031 Ry
     Harris-Foulkes estimate   =    -921.94256639 Ry
     estimated scf accuracy    <       0.00006768 Ry

     iteration # 14     ecut=    60.00 Ry     beta= 0.70
     Davidson diagonalization with overlap
     ethr =  5.19E-08,  avg # of iterations =  1.0

     total cpu time spent up to now is      399.1 secs

     total energy              =    -921.94255295 Ry
     Harris-Foulkes estimate   =    -921.94256079 Ry
     estimated scf accuracy    <       0.00005102 Ry

     iteration # 15     ecut=    60.00 Ry     beta= 0.70
     Davidson diagonalization with overlap
     ethr =  4.55E-08,  avg # of iterations =  3.0

     total cpu time spent up to now is      399.5 secs

     total energy              =    -921.94255370 Ry
     Harris-Foulkes estimate   =    -921.94255524 Ry
     estimated scf accuracy    <       0.00001594 Ry

     iteration # 16     ecut=    60.00 Ry     beta= 0.70
     Davidson diagonalization with overlap
     ethr =  1.42E-08,  avg # of iterations =  4.0

     total cpu time spent up to now is      400.3 secs

     total energy              =    -921.94255745 Ry
     Harris-Foulkes estimate   =    -921.94255752 Ry
     estimated scf accuracy    <       0.00000011 Ry

     iteration # 17     ecut=    60.00 Ry     beta= 0.70
     Davidson diagonalization with overlap
     ethr =  9.88E-11,  avg # of iterations =  5.2

     total cpu time spent up to now is      401.4 secs

     total energy              =    -921.94255769 Ry
     Harris-Foulkes estimate   =    -921.94255763 Ry
     estimated scf accuracy    <       0.00000044 Ry

     iteration # 18     ecut=    60.00 Ry     beta= 0.70
     Davidson diagonalization with overlap
     ethr =  9.88E-11,  avg # of iterations =  4.0

     total cpu time spent up to now is      402.0 secs

     total energy              =    -921.94255758 Ry
     Harris-Foulkes estimate   =    -921.94255770 Ry
     estimated scf accuracy    <       0.00000090 Ry

     iteration # 19     ecut=    60.00 Ry     beta= 0.70
     Davidson diagonalization with overlap
     ethr =  9.88E-11,  avg # of iterations =  4.0

     total cpu time spent up to now is      402.7 secs

     total energy              =    -921.94255758 Ry
     Harris-Foulkes estimate   =    -921.94255760 Ry
     estimated scf accuracy    <       0.00000034 Ry

     iteration # 20     ecut=    60.00 Ry     beta= 0.70
     Davidson diagonalization with overlap
     ethr =  9.88E-11,  avg # of iterations =  3.0

     total cpu time spent up to now is      403.2 secs

     total energy              =    -921.94255756 Ry
     Harris-Foulkes estimate   =    -921.94255758 Ry
     estimated scf accuracy    <       0.00000024 Ry

     iteration # 21     ecut=    60.00 Ry     beta= 0.70
     Davidson diagonalization with overlap
     ethr =  9.88E-11,  avg # of iterations =  2.0

     total cpu time spent up to now is      403.6 secs

     total energy              =    -921.94255756 Ry
     Harris-Foulkes estimate   =    -921.94255756 Ry
     estimated scf accuracy    <       0.00000016 Ry

     iteration # 22     ecut=    60.00 Ry     beta= 0.70
     Davidson diagonalization with overlap
     ethr =  9.88E-11,  avg # of iterations =  1.0

     total cpu time spent up to now is      404.0 secs

     total energy              =    -921.94255756 Ry
     Harris-Foulkes estimate   =    -921.94255756 Ry
     estimated scf accuracy    <       0.00000014 Ry

     iteration # 23     ecut=    60.00 Ry     beta= 0.70
     Davidson diagonalization with overlap
     ethr =  9.88E-11,  avg # of iterations =  1.0

     total cpu time spent up to now is      404.4 secs

     total energy              =    -921.94255755 Ry
     Harris-Foulkes estimate   =    -921.94255756 Ry
     estimated scf accuracy    <       0.00000012 Ry

     iteration # 24     ecut=    60.00 Ry     beta= 0.70
     Davidson diagonalization with overlap
     ethr =  9.88E-11,  avg # of iterations =  1.0

     total cpu time spent up to now is      404.8 secs

     total energy              =    -921.94255754 Ry
     Harris-Foulkes estimate   =    -921.94255756 Ry
     estimated scf accuracy    <       0.00000008 Ry

     iteration # 25     ecut=    60.00 Ry     beta= 0.70
     Davidson diagonalization with overlap
     ethr =  7.15E-11,  avg # of iterations =  4.0

     total cpu time spent up to now is      405.6 secs

     total energy              =    -921.94255757 Ry
     Harris-Foulkes estimate   =    -921.94255757 Ry
     estimated scf accuracy    <       0.00000004 Ry

     iteration # 26     ecut=    60.00 Ry     beta= 0.70
     Davidson diagonalization with overlap
     ethr =  3.82E-11,  avg # of iterations =  1.0

     total cpu time spent up to now is      405.9 secs

     total energy              =    -921.94255756 Ry
     Harris-Foulkes estimate   =    -921.94255757 Ry
     estimated scf accuracy    <       0.00000003 Ry

     iteration # 27     ecut=    60.00 Ry     beta= 0.70
     Davidson diagonalization with overlap
     ethr =  3.01E-11,  avg # of iterations =  1.0

     total cpu time spent up to now is      406.3 secs

     total energy              =    -921.94255756 Ry
     Harris-Foulkes estimate   =    -921.94255757 Ry
     estimated scf accuracy    <       0.00000002 Ry

     iteration # 28     ecut=    60.00 Ry     beta= 0.70
     Davidson diagonalization with overlap
     ethr =  1.97E-11,  avg # of iterations =  1.0

     total cpu time spent up to now is      406.7 secs

     total energy              =    -921.94255756 Ry
     Harris-Foulkes estimate   =    -921.94255756 Ry
     estimated scf accuracy    <       0.00000002 Ry

     iteration # 29     ecut=    60.00 Ry     beta= 0.70
     Davidson diagonalization with overlap
     ethr =  1.56E-11,  avg # of iterations =  3.0

     total cpu time spent up to now is      407.2 secs

     total energy              =    -921.94255756 Ry
     Harris-Foulkes estimate   =    -921.94255756 Ry
     estimated scf accuracy    <          8.5E-09 Ry

     iteration # 30     ecut=    60.00 Ry     beta= 0.70
     Davidson diagonalization with overlap
     ethr =  7.56E-12,  avg # of iterations =  4.0

     total cpu time spent up to now is      407.9 secs

     total energy              =    -921.94255757 Ry
     Harris-Foulkes estimate   =    -921.94255757 Ry
     estimated scf accuracy    <          1.8E-09 Ry

     iteration # 31     ecut=    60.00 Ry     beta= 0.70
     Davidson diagonalization with overlap
     ethr =  1.64E-12,  avg # of iterations =  3.0

     total cpu time spent up to now is      408.4 secs

     total energy              =    -921.94255757 Ry
     Harris-Foulkes estimate   =    -921.94255757 Ry
     estimated scf accuracy    <          1.2E-09 Ry

     iteration # 32     ecut=    60.00 Ry     beta= 0.70
     Davidson diagonalization with overlap
     ethr =  1.09E-12,  avg # of iterations =  1.0

     total cpu time spent up to now is      408.8 secs

     total energy              =    -921.94255757 Ry
     Harris-Foulkes estimate   =    -921.94255757 Ry
     estimated scf accuracy    <          7.7E-10 Ry

     iteration # 33     ecut=    60.00 Ry     beta= 0.70
     Davidson diagonalization with overlap
     ethr =  6.86E-13,  avg # of iterations =  1.8

     total cpu time spent up to now is      409.2 secs

     total energy              =    -921.94255757 Ry
     Harris-Foulkes estimate   =    -921.94255757 Ry
     estimated scf accuracy    <          6.7E-10 Ry

     iteration # 34     ecut=    60.00 Ry     beta= 0.70
     Davidson diagonalization with overlap
     ethr =  6.02E-13,  avg # of iterations =  4.0

     total cpu time spent up to now is      409.8 secs

     total energy              =    -921.94255757 Ry
     Harris-Foulkes estimate   =    -921.94255757 Ry
     estimated scf accuracy    <          7.2E-11 Ry

     iteration # 35     ecut=    60.00 Ry     beta= 0.70
     Davidson diagonalization with overlap
     ethr =  1.00E-13,  avg # of iterations =  4.2

     total cpu time spent up to now is      410.5 secs

     total energy              =    -921.94255757 Ry
     Harris-Foulkes estimate   =    -921.94255757 Ry
     estimated scf accuracy    <          1.0E-11 Ry

     iteration # 36     ecut=    60.00 Ry     beta= 0.70
     Davidson diagonalization with overlap
     ethr =  1.00E-13,  avg # of iterations =  1.0

     total cpu time spent up to now is      410.9 secs

     total energy              =    -921.94255757 Ry
     Harris-Foulkes estimate   =    -921.94255757 Ry
     estimated scf accuracy    <          2.7E-12 Ry

     iteration # 37     ecut=    60.00 Ry     beta= 0.70
     Davidson diagonalization with overlap
     ethr =  1.00E-13,  avg # of iterations =  1.0

     total cpu time spent up to now is      411.3 secs

     total energy              =    -921.94255757 Ry
     Harris-Foulkes estimate   =    -921.94255757 Ry
     estimated scf accuracy    <          2.3E-12 Ry

     iteration # 38     ecut=    60.00 Ry     beta= 0.70
     Davidson diagonalization with overlap
     ethr =  1.00E-13,  avg # of iterations =  1.0

     total cpu time spent up to now is      411.7 secs

     total energy              =    -921.94255757 Ry
     Harris-Foulkes estimate   =    -921.94255757 Ry
     estimated scf accuracy    <          3.4E-12 Ry

     iteration # 39     ecut=    60.00 Ry     beta= 0.70
     Davidson diagonalization with overlap
     ethr =  1.00E-13,  avg # of iterations =  1.0

     total cpu time spent up to now is      412.1 secs

     total energy              =    -921.94255757 Ry
     Harris-Foulkes estimate   =    -921.94255757 Ry
     estimated scf accuracy    <          5.1E-12 Ry

     iteration # 40     ecut=    60.00 Ry     beta= 0.70
     Davidson diagonalization with overlap
     ethr =  1.00E-13,  avg # of iterations =  1.0

     total cpu time spent up to now is      412.5 secs

     total energy              =    -921.94255757 Ry
     Harris-Foulkes estimate   =    -921.94255757 Ry
     estimated scf accuracy    <          4.2E-12 Ry

     iteration # 41     ecut=    60.00 Ry     beta= 0.70
     Davidson diagonalization with overlap
     ethr =  1.00E-13,  avg # of iterations =  1.0

     total cpu time spent up to now is      412.9 secs

     total energy              =    -921.94255757 Ry
     Harris-Foulkes estimate   =    -921.94255757 Ry
     estimated scf accuracy    <          4.4E-12 Ry

     iteration # 42     ecut=    60.00 Ry     beta= 0.70
     Davidson diagonalization with overlap
     ethr =  1.00E-13,  avg # of iterations =  1.0

     total cpu time spent up to now is      413.3 secs

     total energy              =    -921.94255757 Ry
     Harris-Foulkes estimate   =    -921.94255757 Ry
     estimated scf accuracy    <          4.1E-12 Ry

     iteration # 43     ecut=    60.00 Ry     beta= 0.70
     Davidson diagonalization with overlap
     ethr =  1.00E-13,  avg # of iterations =  1.0

     total cpu time spent up to now is      413.7 secs

     total energy              =    -921.94255757 Ry
     Harris-Foulkes estimate   =    -921.94255757 Ry
     estimated scf accuracy    <          2.2E-12 Ry

     iteration # 44     ecut=    60.00 Ry     beta= 0.70
     Davidson diagonalization with overlap
     ethr =  1.00E-13,  avg # of iterations =  1.0

     total cpu time spent up to now is      414.1 secs

     total energy              =    -921.94255757 Ry
     Harris-Foulkes estimate   =    -921.94255757 Ry
     estimated scf accuracy    <          2.7E-12 Ry

     iteration # 45     ecut=    60.00 Ry     beta= 0.70
     Davidson diagonalization with overlap
     ethr =  1.00E-13,  avg # of iterations =  1.0

     total cpu time spent up to now is      414.5 secs

     total energy              =    -921.94255757 Ry
     Harris-Foulkes estimate   =    -921.94255757 Ry
     estimated scf accuracy    <          2.8E-12 Ry

     iteration # 46     ecut=    60.00 Ry     beta= 0.70
     Davidson diagonalization with overlap
     ethr =  1.00E-13,  avg # of iterations =  1.0

     total cpu time spent up to now is      414.9 secs

     total energy              =    -921.94255757 Ry
     Harris-Foulkes estimate   =    -921.94255757 Ry
     estimated scf accuracy    <          3.0E-12 Ry

     iteration # 47     ecut=    60.00 Ry     beta= 0.70
     Davidson diagonalization with overlap
     ethr =  1.00E-13,  avg # of iterations =  1.0

     total cpu time spent up to now is      415.3 secs

     total energy              =    -921.94255757 Ry
     Harris-Foulkes estimate   =    -921.94255757 Ry
     estimated scf accuracy    <          1.8E-12 Ry

     iteration # 48     ecut=    60.00 Ry     beta= 0.70
     Davidson diagonalization with overlap
     ethr =  1.00E-13,  avg # of iterations =  1.0

     total cpu time spent up to now is      415.6 secs

     End of self-consistent calculation

          k = 0.0000 0.0000 0.0000 (  8479 PWs)   bands (ev):

   -58.2892 -58.2856 -58.2748 -58.2729 -32.3364 -32.3309 -32.3250 -32.3164
   -32.2929 -32.2328 -32.1892 -32.1699 -32.1669 -32.1310 -32.1234 -32.1203
   -12.2121 -12.0588 -11.0337 -10.9255 -10.7612 -10.6302 -10.2737 -10.2347
   -10.1432 -10.0546   1.0348   1.1272   1.1443   1.2009   1.4348   2.0249
     2.5903   2.7652   2.8079   3.2075   3.3599   3.3971   3.5840   3.6674
     3.7004   3.7088   3.7480   3.9087   3.9162   3.9459   4.1589   4.1959
     4.4823   4.6291   4.6499   4.6637   4.6819   4.9491   4.9989   5.1124

          k = 0.0000 0.2895 0.0000 (  8429 PWs)   bands (ev):

   -58.2874 -58.2862 -58.2739 -58.2708 -32.3455 -32.3405 -32.3381 -32.3296
   -32.2923 -32.2315 -32.1893 -32.1691 -32.1661 -32.1309 -32.1231 -32.1201
   -12.0420 -11.9096 -10.8896 -10.8527 -10.7309 -10.5903 -10.2097 -10.1889
    -9.9475  -9.9327   0.9324   1.0174   1.0359   1.1121   1.1431   1.1940
     1.5660   1.6950   1.9214   1.9358   2.4163   2.7321   2.8080   3.2939
     3.3741   3.5857   3.7727   3.8916   4.1599   4.3174   4.4937   4.5004
     4.7732   4.7779   4.8078   4.9761   5.0071   5.3931   5.4275   5.7204

          k = 0.3337 0.0000 0.0000 (  8444 PWs)   bands (ev):

   -58.2814 -58.2809 -58.2756 -58.2736 -32.3286 -32.3250 -32.3202 -32.3142
   -32.2922 -32.2634 -32.2466 -32.2393 -32.1701 -32.1675 -32.1477 -32.1308
   -11.5673 -11.3810 -10.8746 -10.6598 -10.6519 -10.5648 -10.2521 -10.2232
   -10.1745 -10.1083   0.4660   0.5474   1.3063   1.3372   1.5482   1.8403
     1.9344   2.3971   2.4727   2.8248   2.8605   2.9738   3.3873   3.4102
     3.4206   3.5484   3.5777   3.6389   4.0431   4.0571   4.1962   4.2382
     4.4288   4.5821   4.6762   4.6793   4.7599   4.8070   5.0802   5.3545

          k = 0.3337 0.2895 0.0000 (  8459 PWs)   bands (ev):

   -58.2829 -58.2798 -58.2756 -58.2741 -32.3384 -32.3351 -32.3324 -32.3264
   -32.2916 -32.2625 -32.2456 -32.2382 -32.1700 -32.1673 -32.1475 -32.1308
   -11.4142 -11.2600 -10.7770 -10.6482 -10.5923 -10.5300 -10.1051 -10.0886
    -9.9789  -9.9737   0.4498   0.5330   1.1450   1.1783   1.2610   1.3332
     1.6064   1.6788   1.6983   1.8848   1.9234   2.4013   2.5759   2.7455
     2.8469   2.9558   3.0520   3.1405   3.4419   3.9670   4.2679   4.4900
     4.6691   4.8157   5.3644   5.4449   5.5131   5.5912   5.6220   5.6991

     highest occupied level (ev):     5.7204

!    total energy              =    -921.94255757 Ry
     Harris-Foulkes estimate   =    -921.94255757 Ry
     estimated scf accuracy    <          4.4E-13 Ry

     The total energy is the sum of the following terms:

     one-electron contribution =    -518.00659495 Ry
     hartree contribution      =     305.23647065 Ry
     xc contribution           =    -174.56898686 Ry
     ewald contribution        =    -534.45542196 Ry
     Dispersion Correction     =      -0.14802446 Ry

     convergence has been achieved in  48 iterations

     Forces acting on atoms (cartesian axes, Ry/au):

     atom    1 type  1   force =     0.00000000   -0.00260693   -0.00022325
     atom    2 type  1   force =     0.00000000    0.00260693    0.00022325
     atom    3 type  1   force =     0.00000000    0.00260693   -0.00022325
     atom    4 type  1   force =     0.00000000   -0.00260693    0.00022325
     atom    5 type  2   force =     0.00000000    0.00036995    0.00002902
     atom    6 type  2   force =     0.00000000   -0.00036995   -0.00002902
     atom    7 type  2   force =     0.00000000   -0.00036995    0.00002902
     atom    8 type  2   force =     0.00000000    0.00036995   -0.00002902
     atom    9 type  2   force =    -0.00000000    0.00274275    0.00016939
     atom   10 type  2   force =    -0.00000000   -0.00274275   -0.00016939
     atom   11 type  2   force =     0.00000000   -0.00274275    0.00016939
     atom   12 type  2   force =     0.00000000   -0.00002127    0.00000000
     atom   13 type  2   force =     0.00000000    0.00002127    0.00000000
     atom   14 type  2   force =     0.00000000    0.00274275   -0.00016939

     Total force =     0.007625     Total SCF correction =     0.000002


     Computing stress (Cartesian axis) and pressure

          total   stress  (Ry/bohr**3)                   (kbar)     P=  -32.39
  -0.00012487   0.00000000   0.00000000        -18.37      0.00      0.00
   0.00000000  -0.00041965   0.00000000          0.00    -61.73      0.00
   0.00000000   0.00000000  -0.00011594          0.00      0.00    -17.06


     Writing output data file v2o5.save/

     init_run     :      0.87s CPU      0.89s WALL (       2 calls)
     electrons    :    368.95s CPU    378.05s WALL (      27 calls)
     update_pot   :      9.44s CPU      9.47s WALL (      25 calls)
     forces       :     10.54s CPU     10.65s WALL (      27 calls)
     stress       :     16.56s CPU     16.60s WALL (      27 calls)

     Called by init_run:
     wfcinit      :      0.41s CPU      0.43s WALL (       2 calls)
     potinit      :      0.14s CPU      0.14s WALL (       2 calls)
     hinit0       :      0.29s CPU      0.29s WALL (       2 calls)

     Called by electrons:
     c_bands      :    347.34s CPU    355.57s WALL (     570 calls)
     sum_band     :     16.91s CPU     17.57s WALL (     570 calls)
     v_of_rho     :      1.88s CPU      1.90s WALL (     577 calls)
     mix_rho      :      0.98s CPU      0.99s WALL (     570 calls)

     Called by c_bands:
     init_us_2    :      2.21s CPU      2.49s WALL (    4784 calls)
     cegterg      :    339.81s CPU    346.99s WALL (    2280 calls)

     Called by sum_band:

     Called by *egterg:
     h_psi        :    163.16s CPU    166.98s WALL (    9698 calls)
     g_psi        :      0.43s CPU      0.43s WALL (    7410 calls)
     cdiaghg      :     82.99s CPU     85.00s WALL (    9510 calls)

     Called by h_psi:
     h_psi:pot    :    162.29s CPU    166.06s WALL (    9698 calls)
     h_psi:calbec :     47.44s CPU     48.82s WALL (    9698 calls)
     vloc_psi     :     84.03s CPU     86.25s WALL (    9698 calls)
     add_vuspsi   :     30.78s CPU     30.97s WALL (    9698 calls)

     General routines
     calbec       :     52.03s CPU     53.52s WALL (   10238 calls)
     fft          :      1.77s CPU      1.78s WALL (    6463 calls)
     ffts         :      0.12s CPU      0.12s WALL (     570 calls)
     fftw         :     91.82s CPU     94.38s WALL (  822132 calls)

     Parallel routines
     fft_scatt_xy :      5.62s CPU      5.77s WALL (  829165 calls)
     fft_scatt_yz :     47.93s CPU     49.32s WALL (  829165 calls)

     PWSCF        :   6m47.11s CPU   6m56.55s WALL


   This run was terminated on:  21: 1:34  17May2024            

=------------------------------------------------------------------------------=
   JOB DONE.
=------------------------------------------------------------------------------=
