
     Program PWSCF v.6.4.1 starts on 26May2024 at 20:34:52 

     This program is part of the open-source Quantum ESPRESSO suite
     for quantum simulation of materials; please cite
         "P. Giannozzi et al., J. Phys.:Condens. Matter 21 395502 (2009);
         "P. Giannozzi et al., J. Phys.:Condens. Matter 29 465901 (2017);
          URL http://www.quantum-espresso.org", 
     in publications or presentations arising from this work. More details at
     http://www.quantum-espresso.org/quote

     Parallel version (MPI), running on    32 processors

     MPI processes distributed on     1 nodes
     R & G space division:  proc/nbgrp/npool/nimage =      32
     Reading input from v16o39.rlx.in
Warning: card &CELL ignored
Warning: card     CELL_DYNAMICS  = "BFGS" ignored
Warning: card / ignored

     Current dimensions of program PWSCF are:
     Max number of different atomic species (ntypx) = 10
     Max number of k-points (npk) =  40000
     Max angular momentum in pseudopotentials (lmaxx) =  3
               file V.pbe-spnl-kjpaw_psl.1.0.0.UPF: wavefunction(s)  3P 3D renormalized
               file O.pbe-n-kjpaw_psl.1.0.0.UPF: wavefunction(s)  2S 2P renormalized

     -------------------------------------------------
     Parameters for Dispersion (Grimme-D2) Correction:
     -------------------------------------------------
       atom      VdW radius       C_6     

        V          2.952        374.666
        O          2.536         24.284

     Subspace diagonalization in iterative solution of the eigenvalue problem:
     one sub-group per band group will be used
     ELPA distributed-memory algorithm (size of sub-group:  4*  4 procs)


     Parallelization info
     --------------------
     sticks:   dense  smooth     PW     G-vecs:    dense   smooth      PW
     Min         363     145     39                42943    10863    1531
     Max         367     146     40                42945    10870    1534
     Sum       11627    4657   1261              1374195   347715   49027



     bravais-lattice index     =            8
     lattice parameter (alat)  =      13.5232  a.u.
     unit-cell volume          =    4911.3436 (a.u.)^3
     number of atoms/cell      =           55
     number of atomic types    =            2
     number of electrons       =       442.00
     number of Kohn-Sham states=          265
     kinetic-energy cutoff     =      65.0000  Ry
     charge density cutoff     =     650.0000  Ry
     convergence threshold     =      1.0E-10
     mixing beta               =       0.7000
     number of iterations used =            8  plain     mixing
     Exchange-correlation      = SLA PW PBX PBC ( 1  4  3  4 0 0)
     nstep                     =          500


     celldm(1)=  13.523246  celldm(2)=   1.231081  celldm(3)=   1.613135
     celldm(4)=   0.000000  celldm(5)=   0.000000  celldm(6)=   0.000000

     crystal axes: (cart. coord. in units of alat)
               a(1) = (   1.000000   0.000000   0.000000 )  
               a(2) = (   0.000000   1.231081   0.000000 )  
               a(3) = (   0.000000   0.000000   1.613135 )  

     reciprocal axes: (cart. coord. in units 2 pi/alat)
               b(1) = (  1.000000  0.000000  0.000000 )  
               b(2) = (  0.000000  0.812294  0.000000 )  
               b(3) = (  0.000000  0.000000  0.619911 )  


     PseudoPot. # 1 for V  read from file:
     /home/mpicuntureo/pseudos/V.pbe-spnl-kjpaw_psl.1.0.0.UPF
     MD5 check sum: 069c5df6a0a9f40a694a86a6cab52b89
     Pseudo is Projector augmented-wave + core cor, Zval = 13.0
     Generated using "atomic" code by A. Dal Corso v.6.3
     Shape of augmentation charge: PSQ
     Using radial grid of 1181 points,  6 beta functions with: 
                l(1) =   0
                l(2) =   0
                l(3) =   1
                l(4) =   1
                l(5) =   2
                l(6) =   2
     Q(r) pseudized with 0 coefficients 


     PseudoPot. # 2 for O  read from file:
     /home/mpicuntureo/pseudos/O.pbe-n-kjpaw_psl.1.0.0.UPF
     MD5 check sum: e99d9cef9b487d1ca56f5b95ecd0fd7a
     Pseudo is Projector augmented-wave + core cor, Zval =  6.0
     Generated using "atomic" code by A. Dal Corso v.6.3
     Shape of augmentation charge: PSQ
     Using radial grid of 1095 points,  4 beta functions with: 
                l(1) =   0
                l(2) =   0
                l(3) =   1
                l(4) =   1
     Q(r) pseudized with 0 coefficients 


     atomic species   valence    mass     pseudopotential
        V             13.00    50.94150     V ( 1.00)
        O              6.00    15.99940     O ( 1.00)


     Simplified LDA+U calculation (l_max = 2) with parameters (eV):
     atomic species    L          U    alpha       J0     beta
        V              2     4.0000   0.0000   0.0000   0.0000



      2 Sym. Ops. (no inversion) found



   Cartesian axes

     site n.     atom                  positions (alat units)
         1           V   tau(   1) = (   0.0000000   0.2428105   1.0470345  )
         2           V   tau(   2) = (   0.2500184   0.3864224   1.3717392  )
         3           V   tau(   3) = (   0.2499499   0.3858333   0.2407071  )
         4           V   tau(   4) = (   0.0000000   0.2437213   0.5674824  )
         5           O   tau(   5) = (   0.2501519   0.3030350   1.0979455  )
         6           O   tau(   6) = (   0.0000000   0.3111268   1.3208082  )
         7           O   tau(   7) = (   0.0000000   0.3121020   0.2935589  )
         8           O   tau(   8) = (   0.2522858   0.3045285   0.5162992  )
         9           O   tau(   9) = (   0.0000000   0.0052254   0.5689076  )
        10           O   tau(  10) = (   0.2529267   0.5999350   0.2402459  )
        11           O   tau(  11) = (   0.2499610   0.5994588   1.3757138  )
        12           O   tau(  12) = (   0.2505853   0.3127655   0.0006630  )
        13           O   tau(  13) = (   0.0000000   0.3018850   0.8066731  )
        14           O   tau(  14) = (   0.0000000   0.0032708   1.0435435  )
        15           V   tau(  15) = (   0.0000000   0.8447850   1.0471433  )
        16           V   tau(  16) = (   0.2489263   0.9884628   1.3712559  )
        17           V   tau(  17) = (   0.2482191   0.9863217   0.2354201  )
        18           V   tau(  18) = (   0.0000000   0.8420407   0.5662419  )
        19           O   tau(  19) = (   0.2507994   0.9200034   1.0977520  )
        20           O   tau(  20) = (   0.0000000   0.9286740   1.3199580  )
        21           O   tau(  21) = (   0.0000000   0.9272264   0.2921399  )
        22           O   tau(  22) = (   0.2504589   0.9108985   0.5133408  )
        23           O   tau(  23) = (   0.0000000   0.6285693   0.5705624  )
        24           O   tau(  24) = (   0.2501680   1.2251892   0.2378683  )
        25           O   tau(  25) = (   0.2500818   1.2284524   1.3757432  )
        26           O   tau(  26) = (   0.2487910   0.9286574  -0.0021073  )
        27           O   tau(  27) = (   0.0000000   0.9192662   0.8055275  )
        28           O   tau(  28) = (   0.0000000   0.6320628   1.0434066  )
        29           V   tau(  29) = (   0.5000000   0.2446657   1.0456902  )
        30           V   tau(  30) = (   0.7499816   0.3864224   1.3717392  )
        31           V   tau(  31) = (   0.7500502   0.3858333   0.2407071  )
        32           V   tau(  32) = (   0.5000000   0.2326447   0.5666796  )
        33           O   tau(  33) = (   0.7498481   0.3030350   1.0979455  )
        34           O   tau(  34) = (   0.5000000   0.3102908   1.3198057  )
        35           O   tau(  35) = (   0.5000000   0.3116801   0.2958013  )
        36           O   tau(  36) = (   0.7477142   0.3045285   0.5162992  )
        37           O   tau(  37) = (   0.5000000  -0.0004529   0.5727315  )
        38           O   tau(  38) = (   0.7470733   0.5999350   0.2402459  )
        39           O   tau(  39) = (   0.7500390   0.5994588   1.3757138  )
        40           O   tau(  40) = (   0.7494147   0.3127655   0.0006630  )
        41           O   tau(  41) = (   0.5000000   0.3070727   0.8019343  )
        42           O   tau(  42) = (   0.5000000   0.0058220   1.0390269  )
        43           V   tau(  43) = (   0.5000000   0.8393733   1.0568669  )
        44           V   tau(  44) = (   0.7510737   0.9884628   1.3712559  )
        45           V   tau(  45) = (   0.7517809   0.9863217   0.2354201  )
        46           V   tau(  46) = (   0.5000000   0.9069653   0.5661297  )
        47           O   tau(  47) = (   0.7492006   0.9200034   1.0977520  )
        48           O   tau(  48) = (   0.5000000   0.9275498   1.3219060  )
        49           O   tau(  49) = (   0.5000000   0.9286279   0.2893416  )
        50           O   tau(  50) = (   0.7495411   0.9108985   0.5133408  )
        51           O   tau(  51) = (   0.7498320   1.2251892   0.2378683  )
        52           O   tau(  52) = (   0.7499182   1.2284524   1.3757432  )
        53           O   tau(  53) = (   0.7512090   0.9286574  -0.0021073  )
        54           O   tau(  54) = (   0.5000000   0.8988423   0.8065068  )
        55           O   tau(  55) = (   0.5000000   0.6268402   1.0516361  )

     number of k points=     8  gaussian smearing, width (Ry)=  0.0500
                       cart. coord. in units 2pi/alat
        k(    1) = (   0.0000000   0.0000000   0.0000000), wk =   0.2500000
        k(    2) = (   0.0000000   0.0000000  -0.3099554), wk =   0.2500000
        k(    3) = (   0.0000000  -0.4061470   0.0000000), wk =   0.2500000
        k(    4) = (   0.0000000  -0.4061470  -0.3099554), wk =   0.2500000
        k(    5) = (  -0.5000000   0.0000000   0.0000000), wk =   0.2500000
        k(    6) = (  -0.5000000   0.0000000  -0.3099554), wk =   0.2500000
        k(    7) = (  -0.5000000  -0.4061470   0.0000000), wk =   0.2500000
        k(    8) = (  -0.5000000  -0.4061470  -0.3099554), wk =   0.2500000

     Dense  grid:  1374195 G-vectors     FFT dimensions: ( 120, 135, 180)

     Smooth grid:   347715 G-vectors     FFT dimensions: (  72,  90, 120)

     Estimated max dynamical RAM per process >     340.41 MB

     Estimated total dynamical RAM >      10.64 GB

     Check: negative core charge=   -0.000001

     Initial potential from superposition of free atoms

     starting charge  441.98541, renormalised to  442.00000
     Number of +U iterations with fixed ns =  0
     Starting occupations:
 --- enter write_ns ---
 LDA+U parameters:
U( 1)     =  4.00000000
alpha( 1) =  0.00000000
atom    1   Tr[ns(na)] =   3.00000
    eigenvalues: 
  0.300  0.300  0.300  0.300  0.300
    eigenvectors:
  1.000  0.000  0.000  0.000  0.000
  0.000  1.000  0.000  0.000  0.000
  0.000  0.000  1.000  0.000  0.000
  0.000  0.000  0.000  1.000  0.000
  0.000  0.000  0.000  0.000  1.000
    occupations:
  0.300  0.000  0.000  0.000  0.000
  0.000  0.300  0.000  0.000  0.000
  0.000  0.000  0.300  0.000  0.000
  0.000  0.000  0.000  0.300  0.000
  0.000  0.000  0.000  0.000  0.300
atom    2   Tr[ns(na)] =   3.00000
    eigenvalues: 
  0.300  0.300  0.300  0.300  0.300
    eigenvectors:
  1.000  0.000  0.000  0.000  0.000
  0.000  1.000  0.000  0.000  0.000
  0.000  0.000  1.000  0.000  0.000
  0.000  0.000  0.000  1.000  0.000
  0.000  0.000  0.000  0.000  1.000
    occupations:
  0.300  0.000  0.000  0.000  0.000
  0.000  0.300  0.000  0.000  0.000
  0.000  0.000  0.300  0.000  0.000
  0.000  0.000  0.000  0.300  0.000
  0.000  0.000  0.000  0.000  0.300
atom    3   Tr[ns(na)] =   3.00000
    eigenvalues: 
  0.300  0.300  0.300  0.300  0.300
    eigenvectors:
  1.000  0.000  0.000  0.000  0.000
  0.000  1.000  0.000  0.000  0.000
  0.000  0.000  1.000  0.000  0.000
  0.000  0.000  0.000  1.000  0.000
  0.000  0.000  0.000  0.000  1.000
    occupations:
  0.300  0.000  0.000  0.000  0.000
  0.000  0.300  0.000  0.000  0.000
  0.000  0.000  0.300  0.000  0.000
  0.000  0.000  0.000  0.300  0.000
  0.000  0.000  0.000  0.000  0.300
atom    4   Tr[ns(na)] =   3.00000
    eigenvalues: 
  0.300  0.300  0.300  0.300  0.300
    eigenvectors:
  1.000  0.000  0.000  0.000  0.000
  0.000  1.000  0.000  0.000  0.000
  0.000  0.000  1.000  0.000  0.000
  0.000  0.000  0.000  1.000  0.000
  0.000  0.000  0.000  0.000  1.000
    occupations:
  0.300  0.000  0.000  0.000  0.000
  0.000  0.300  0.000  0.000  0.000
  0.000  0.000  0.300  0.000  0.000
  0.000  0.000  0.000  0.300  0.000
  0.000  0.000  0.000  0.000  0.300
atom   15   Tr[ns(na)] =   3.00000
    eigenvalues: 
  0.300  0.300  0.300  0.300  0.300
    eigenvectors:
  1.000  0.000  0.000  0.000  0.000
  0.000  1.000  0.000  0.000  0.000
  0.000  0.000  1.000  0.000  0.000
  0.000  0.000  0.000  1.000  0.000
  0.000  0.000  0.000  0.000  1.000
    occupations:
  0.300  0.000  0.000  0.000  0.000
  0.000  0.300  0.000  0.000  0.000
  0.000  0.000  0.300  0.000  0.000
  0.000  0.000  0.000  0.300  0.000
  0.000  0.000  0.000  0.000  0.300
atom   16   Tr[ns(na)] =   3.00000
    eigenvalues: 
  0.300  0.300  0.300  0.300  0.300
    eigenvectors:
  1.000  0.000  0.000  0.000  0.000
  0.000  1.000  0.000  0.000  0.000
  0.000  0.000  1.000  0.000  0.000
  0.000  0.000  0.000  1.000  0.000
  0.000  0.000  0.000  0.000  1.000
    occupations:
  0.300  0.000  0.000  0.000  0.000
  0.000  0.300  0.000  0.000  0.000
  0.000  0.000  0.300  0.000  0.000
  0.000  0.000  0.000  0.300  0.000
  0.000  0.000  0.000  0.000  0.300
atom   17   Tr[ns(na)] =   3.00000
    eigenvalues: 
  0.300  0.300  0.300  0.300  0.300
    eigenvectors:
  1.000  0.000  0.000  0.000  0.000
  0.000  1.000  0.000  0.000  0.000
  0.000  0.000  1.000  0.000  0.000
  0.000  0.000  0.000  1.000  0.000
  0.000  0.000  0.000  0.000  1.000
    occupations:
  0.300  0.000  0.000  0.000  0.000
  0.000  0.300  0.000  0.000  0.000
  0.000  0.000  0.300  0.000  0.000
  0.000  0.000  0.000  0.300  0.000
  0.000  0.000  0.000  0.000  0.300
atom   18   Tr[ns(na)] =   3.00000
    eigenvalues: 
  0.300  0.300  0.300  0.300  0.300
    eigenvectors:
  1.000  0.000  0.000  0.000  0.000
  0.000  1.000  0.000  0.000  0.000
  0.000  0.000  1.000  0.000  0.000
  0.000  0.000  0.000  1.000  0.000
  0.000  0.000  0.000  0.000  1.000
    occupations:
  0.300  0.000  0.000  0.000  0.000
  0.000  0.300  0.000  0.000  0.000
  0.000  0.000  0.300  0.000  0.000
  0.000  0.000  0.000  0.300  0.000
  0.000  0.000  0.000  0.000  0.300
atom   29   Tr[ns(na)] =   3.00000
    eigenvalues: 
  0.300  0.300  0.300  0.300  0.300
    eigenvectors:
  1.000  0.000  0.000  0.000  0.000
  0.000  1.000  0.000  0.000  0.000
  0.000  0.000  1.000  0.000  0.000
  0.000  0.000  0.000  1.000  0.000
  0.000  0.000  0.000  0.000  1.000
    occupations:
  0.300  0.000  0.000  0.000  0.000
  0.000  0.300  0.000  0.000  0.000
  0.000  0.000  0.300  0.000  0.000
  0.000  0.000  0.000  0.300  0.000
  0.000  0.000  0.000  0.000  0.300
atom   30   Tr[ns(na)] =   3.00000
    eigenvalues: 
  0.300  0.300  0.300  0.300  0.300
    eigenvectors:
  1.000  0.000  0.000  0.000  0.000
  0.000  1.000  0.000  0.000  0.000
  0.000  0.000  1.000  0.000  0.000
  0.000  0.000  0.000  1.000  0.000
  0.000  0.000  0.000  0.000  1.000
    occupations:
  0.300  0.000  0.000  0.000  0.000
  0.000  0.300  0.000  0.000  0.000
  0.000  0.000  0.300  0.000  0.000
  0.000  0.000  0.000  0.300  0.000
  0.000  0.000  0.000  0.000  0.300
atom   31   Tr[ns(na)] =   3.00000
    eigenvalues: 
  0.300  0.300  0.300  0.300  0.300
    eigenvectors:
  1.000  0.000  0.000  0.000  0.000
  0.000  1.000  0.000  0.000  0.000
  0.000  0.000  1.000  0.000  0.000
  0.000  0.000  0.000  1.000  0.000
  0.000  0.000  0.000  0.000  1.000
    occupations:
  0.300  0.000  0.000  0.000  0.000
  0.000  0.300  0.000  0.000  0.000
  0.000  0.000  0.300  0.000  0.000
  0.000  0.000  0.000  0.300  0.000
  0.000  0.000  0.000  0.000  0.300
atom   32   Tr[ns(na)] =   3.00000
    eigenvalues: 
  0.300  0.300  0.300  0.300  0.300
    eigenvectors:
  1.000  0.000  0.000  0.000  0.000
  0.000  1.000  0.000  0.000  0.000
  0.000  0.000  1.000  0.000  0.000
  0.000  0.000  0.000  1.000  0.000
  0.000  0.000  0.000  0.000  1.000
    occupations:
  0.300  0.000  0.000  0.000  0.000
  0.000  0.300  0.000  0.000  0.000
  0.000  0.000  0.300  0.000  0.000
  0.000  0.000  0.000  0.300  0.000
  0.000  0.000  0.000  0.000  0.300
atom   43   Tr[ns(na)] =   3.00000
    eigenvalues: 
  0.300  0.300  0.300  0.300  0.300
    eigenvectors:
  1.000  0.000  0.000  0.000  0.000
  0.000  1.000  0.000  0.000  0.000
  0.000  0.000  1.000  0.000  0.000
  0.000  0.000  0.000  1.000  0.000
  0.000  0.000  0.000  0.000  1.000
    occupations:
  0.300  0.000  0.000  0.000  0.000
  0.000  0.300  0.000  0.000  0.000
  0.000  0.000  0.300  0.000  0.000
  0.000  0.000  0.000  0.300  0.000
  0.000  0.000  0.000  0.000  0.300
atom   44   Tr[ns(na)] =   3.00000
    eigenvalues: 
  0.300  0.300  0.300  0.300  0.300
    eigenvectors:
  1.000  0.000  0.000  0.000  0.000
  0.000  1.000  0.000  0.000  0.000
  0.000  0.000  1.000  0.000  0.000
  0.000  0.000  0.000  1.000  0.000
  0.000  0.000  0.000  0.000  1.000
    occupations:
  0.300  0.000  0.000  0.000  0.000
  0.000  0.300  0.000  0.000  0.000
  0.000  0.000  0.300  0.000  0.000
  0.000  0.000  0.000  0.300  0.000
  0.000  0.000  0.000  0.000  0.300
atom   45   Tr[ns(na)] =   3.00000
    eigenvalues: 
  0.300  0.300  0.300  0.300  0.300
    eigenvectors:
  1.000  0.000  0.000  0.000  0.000
  0.000  1.000  0.000  0.000  0.000
  0.000  0.000  1.000  0.000  0.000
  0.000  0.000  0.000  1.000  0.000
  0.000  0.000  0.000  0.000  1.000
    occupations:
  0.300  0.000  0.000  0.000  0.000
  0.000  0.300  0.000  0.000  0.000
  0.000  0.000  0.300  0.000  0.000
  0.000  0.000  0.000  0.300  0.000
  0.000  0.000  0.000  0.000  0.300
atom   46   Tr[ns(na)] =   3.00000
    eigenvalues: 
  0.300  0.300  0.300  0.300  0.300
    eigenvectors:
  1.000  0.000  0.000  0.000  0.000
  0.000  1.000  0.000  0.000  0.000
  0.000  0.000  1.000  0.000  0.000
  0.000  0.000  0.000  1.000  0.000
  0.000  0.000  0.000  0.000  1.000
    occupations:
  0.300  0.000  0.000  0.000  0.000
  0.000  0.300  0.000  0.000  0.000
  0.000  0.000  0.300  0.000  0.000
  0.000  0.000  0.000  0.300  0.000
  0.000  0.000  0.000  0.000  0.300
N of occupied +U levels =   48.000000
 --- exit write_ns ---
 Atomic wfc used for LDA+U Projector are NOT orthogonalized
     Starting wfcs are  316 randomized atomic wfcs
     Checking if some PAW data can be deallocated... 

     total cpu time spent up to now is       77.6 secs

     Self-consistent Calculation

     iteration #  1     ecut=    65.00 Ry     beta= 0.70
     Davidson diagonalization with overlap
     ethr =  1.00E-02,  avg # of iterations =  2.0
 --- enter write_ns ---
 LDA+U parameters:
U( 1)     =  4.00000000
alpha( 1) =  0.00000000
atom    1   Tr[ns(na)] =   2.69083
    eigenvalues: 
  0.214  0.233  0.236  0.326  0.336
    eigenvectors:
  0.000  0.000  0.018  0.018  0.963
  1.000  0.000  0.000  0.000  0.000
  0.000  0.000  0.976  0.009  0.015
  0.000  0.000  0.006  0.972  0.022
  0.000  1.000  0.000  0.000  0.000
    occupations:
  0.334 -0.000  0.013  0.002  0.000
 -0.000  0.214 -0.000  0.000  0.000
  0.013 -0.000  0.238 -0.007  0.000
  0.002  0.000 -0.007  0.326 -0.000
  0.000  0.000  0.000 -0.000  0.233
atom    2   Tr[ns(na)] =   3.00198
    eigenvalues: 
  0.212  0.283  0.292  0.319  0.395
    eigenvectors:
  0.000  0.237  0.000  0.473  0.290
  0.999  0.000  0.001  0.000  0.000
  0.000  0.684  0.000  0.315  0.001
  0.000  0.079  0.000  0.212  0.709
  0.001  0.000  0.999  0.000  0.000
    occupations:
  0.332 -0.000  0.016  0.040  0.000
 -0.000  0.213  0.000  0.000 -0.003
  0.016  0.000  0.294 -0.006 -0.000
  0.040  0.000 -0.006  0.370  0.000
  0.000 -0.003 -0.000  0.000  0.292
atom    3   Tr[ns(na)] =   2.98814
    eigenvalues: 
  0.211  0.280  0.288  0.322  0.392
    eigenvectors:
  0.000  0.225  0.000  0.471  0.304
  1.000  0.000  0.000  0.000  0.000
  0.000  0.672  0.011  0.317  0.000
  0.000  0.093  0.001  0.211  0.695
  0.000  0.010  0.988  0.001  0.001
    occupations:
  0.334  0.000 -0.017  0.038 -0.003
  0.000  0.211  0.001 -0.000  0.001
 -0.017  0.001  0.293  0.010 -0.000
  0.038 -0.000  0.010  0.367 -0.001
 -0.003  0.001 -0.000 -0.001  0.288
atom    4   Tr[ns(na)] =   2.69457
    eigenvalues: 
  0.212  0.232  0.239  0.325  0.339
    eigenvectors:
  0.000  0.000  0.020  0.097  0.883
  0.997  0.003  0.000  0.000  0.000
  0.000  0.000  0.968  0.022  0.010
  0.000  0.000  0.012  0.881  0.108
  0.003  0.997  0.000  0.000  0.000
    occupations:
  0.336 -0.000 -0.013  0.006  0.000
 -0.000  0.212 -0.000  0.000 -0.001
 -0.013 -0.000  0.242  0.009  0.000
  0.006  0.000  0.009  0.325 -0.000
  0.000 -0.001  0.000 -0.000  0.232
atom   15   Tr[ns(na)] =   3.01476
    eigenvalues: 
  0.215  0.285  0.292  0.319  0.396
    eigenvectors:
  0.000  0.256  0.000  0.452  0.292
  1.000  0.000  0.000  0.000  0.000
  0.000  0.657  0.000  0.342  0.001
  0.000  0.088  0.000  0.206  0.707
  0.000  0.000  1.000  0.000  0.000
    occupations:
  0.333 -0.000  0.015  0.040  0.000
 -0.000  0.215 -0.000  0.000 -0.001
  0.015 -0.000  0.297 -0.006  0.000
  0.040  0.000 -0.006  0.371 -0.000
  0.000 -0.001  0.000 -0.000  0.292
atom   16   Tr[ns(na)] =   2.69600
    eigenvalues: 
  0.216  0.233  0.236  0.326  0.336
    eigenvectors:
  0.000  0.000  0.019  0.009  0.972
  0.997  0.002  0.000  0.000  0.000
  0.000  0.002  0.974  0.007  0.017
  0.000  0.000  0.005  0.984  0.011
  0.002  0.996  0.002  0.000  0.000
    occupations:
  0.334  0.001  0.014  0.002 -0.001
  0.001  0.216  0.000 -0.001  0.001
  0.014  0.000  0.239 -0.006 -0.000
  0.002 -0.001 -0.006  0.326 -0.000
 -0.001  0.001 -0.000 -0.000  0.233
atom   17   Tr[ns(na)] =   2.70793
    eigenvalues: 
  0.219  0.235  0.237  0.327  0.336
    eigenvectors:
  0.000  0.006  0.022  0.093  0.879
  0.921  0.043  0.036  0.000  0.000
  0.012  0.115  0.824  0.036  0.012
  0.000  0.002  0.019  0.870  0.109
  0.067  0.833  0.099  0.000  0.001
    occupations:
  0.332 -0.001 -0.015  0.005 -0.003
 -0.001  0.220  0.003  0.002 -0.004
 -0.015  0.003  0.241  0.012  0.000
  0.005  0.002  0.012  0.326  0.000
 -0.003 -0.004  0.000  0.000  0.234
atom   18   Tr[ns(na)] =   2.99912
    eigenvalues: 
  0.214  0.283  0.288  0.321  0.393
    eigenvectors:
  0.000  0.256  0.000  0.471  0.273
  1.000  0.000  0.000  0.000  0.000
  0.000  0.666  0.000  0.333  0.001
  0.000  0.078  0.000  0.196  0.726
  0.000  0.000  1.000  0.000  0.000
    occupations:
  0.331 -0.000 -0.017  0.038  0.000
 -0.000  0.214 -0.000  0.000 -0.000
 -0.017 -0.000  0.296  0.007  0.000
  0.038  0.000  0.007  0.371 -0.000
  0.000 -0.000  0.000 -0.000  0.288
atom   29   Tr[ns(na)] =   2.67418
    eigenvalues: 
  0.208  0.234  0.235  0.328  0.333
    eigenvectors:
  0.000  0.020  0.000  0.382  0.598
  0.996  0.000  0.004  0.000  0.000
  0.000  0.978  0.000  0.015  0.007
  0.000  0.002  0.000  0.603  0.395
  0.004  0.000  0.996  0.000  0.000
    occupations:
  0.329 -0.000  0.013  0.003  0.000
 -0.000  0.208 -0.000  0.000 -0.002
  0.013 -0.000  0.236 -0.004  0.000
  0.003  0.000 -0.004  0.329 -0.000
  0.000 -0.002  0.000 -0.000  0.234
atom   30   Tr[ns(na)] =   3.00198
    eigenvalues: 
  0.212  0.283  0.292  0.319  0.395
    eigenvectors:
  0.000  0.237  0.000  0.473  0.290
  0.999  0.000  0.001  0.000  0.000
  0.000  0.684  0.000  0.315  0.001
  0.000  0.079  0.000  0.212  0.709
  0.001  0.000  0.999  0.000  0.000
    occupations:
  0.332  0.000  0.016  0.040 -0.000
  0.000  0.213 -0.000 -0.000 -0.003
  0.016 -0.000  0.294 -0.006  0.000
  0.040 -0.000 -0.006  0.370 -0.000
 -0.000 -0.003  0.000 -0.000  0.292
atom   31   Tr[ns(na)] =   2.98814
    eigenvalues: 
  0.211  0.280  0.288  0.322  0.392
    eigenvectors:
  0.000  0.225  0.000  0.471  0.304
  1.000  0.000  0.000  0.000  0.000
  0.000  0.672  0.011  0.317  0.000
  0.000  0.093  0.001  0.211  0.695
  0.000  0.010  0.988  0.001  0.001
    occupations:
  0.334 -0.000 -0.017  0.038  0.003
 -0.000  0.211 -0.001  0.000  0.001
 -0.017 -0.001  0.293  0.010  0.000
  0.038  0.000  0.010  0.367  0.001
  0.003  0.001  0.000  0.001  0.288
atom   32   Tr[ns(na)] =   2.71018
    eigenvalues: 
  0.208  0.246  0.249  0.321  0.332
    eigenvectors:
  0.000  0.000  0.047  0.001  0.951
  1.000  0.000  0.000  0.000  0.000
  0.000  0.000  0.937  0.018  0.045
  0.000  0.000  0.015  0.980  0.004
  0.000  1.000  0.000  0.000  0.000
    occupations:
  0.328 -0.000 -0.017  0.003  0.000
 -0.000  0.208 -0.000  0.000  0.001
 -0.017 -0.000  0.254  0.008  0.000
  0.003  0.000  0.008  0.319 -0.000
  0.000  0.001  0.000 -0.000  0.246
atom   43   Tr[ns(na)] =   3.03654
    eigenvalues: 
  0.222  0.290  0.297  0.313  0.395
    eigenvectors:
  0.000  0.038  0.000  0.676  0.285
  0.996  0.000  0.004  0.000  0.000
  0.000  0.956  0.000  0.043  0.002
  0.000  0.006  0.000  0.281  0.713
  0.004  0.000  0.996  0.000  0.000
    occupations:
  0.336 -0.000  0.006  0.037  0.000
 -0.000  0.223 -0.000  0.000 -0.004
  0.006 -0.000  0.292  0.001  0.000
  0.037  0.000  0.001  0.372 -0.000
  0.000 -0.004  0.000 -0.000  0.297
atom   44   Tr[ns(na)] =   2.69600
    eigenvalues: 
  0.216  0.233  0.236  0.326  0.336
    eigenvectors:
  0.000  0.000  0.019  0.009  0.972
  0.997  0.002  0.000  0.000  0.000
  0.000  0.002  0.974  0.007  0.017
  0.000  0.000  0.005  0.984  0.011
  0.002  0.996  0.002  0.000  0.000
    occupations:
  0.334 -0.001  0.014  0.002  0.001
 -0.001  0.216 -0.000  0.001  0.001
  0.014 -0.000  0.239 -0.006  0.000
  0.002  0.001 -0.006  0.326  0.000
  0.001  0.001  0.000  0.000  0.233
atom   45   Tr[ns(na)] =   2.70793
    eigenvalues: 
  0.219  0.235  0.237  0.327  0.336
    eigenvectors:
  0.000  0.006  0.022  0.093  0.879
  0.921  0.043  0.036  0.000  0.000
  0.012  0.115  0.824  0.036  0.012
  0.000  0.002  0.019  0.870  0.109
  0.067  0.833  0.099  0.000  0.001
    occupations:
  0.332  0.001 -0.015  0.005  0.003
  0.001  0.220 -0.003 -0.002 -0.004
 -0.015 -0.003  0.241  0.012 -0.000
  0.005 -0.002  0.012  0.326 -0.000
  0.003 -0.004 -0.000 -0.000  0.234
atom   46   Tr[ns(na)] =   2.21679
    eigenvalues: 
  0.147  0.156  0.185  0.244  0.376
    eigenvectors:
  0.000  0.003  0.233  0.000  0.764
  0.001  0.000  0.000  0.999  0.000
  0.000  0.996  0.000  0.000  0.004
  0.000  0.001  0.767  0.000  0.231
  0.999  0.000  0.000  0.001  0.000
    occupations:
  0.331 -0.000  0.013 -0.080  0.000
 -0.000  0.244 -0.000  0.000  0.004
  0.013 -0.000  0.157 -0.007  0.000
 -0.080  0.000 -0.007  0.229 -0.000
  0.000  0.004  0.000 -0.000  0.147
N of occupied +U levels =   44.825060
 --- exit write_ns ---

     negative rho (up, down):  4.393E-06 0.000E+00

     total cpu time spent up to now is      256.5 secs

     total energy              =   -5020.87115748 Ry
     Harris-Foulkes estimate   =   -5053.41408515 Ry
     estimated scf accuracy    <      39.96573921 Ry

     iteration #  2     ecut=    65.00 Ry     beta= 0.70
     Davidson diagonalization with overlap
     ethr =  9.04E-03,  avg # of iterations =  4.0

     total cpu time spent up to now is      849.2 secs

     total energy              =   -4978.91823091 Ry
     Harris-Foulkes estimate   =   -5145.03261506 Ry
     estimated scf accuracy    <     788.13663801 Ry

     iteration #  3     ecut=    65.00 Ry     beta= 0.70
     Davidson diagonalization with overlap
     ethr =  9.04E-03,  avg # of iterations =  5.0

     total cpu time spent up to now is     1199.0 secs

     total energy              =   -5030.23705376 Ry
     Harris-Foulkes estimate   =   -5055.22676027 Ry
     estimated scf accuracy    <     236.82351564 Ry

     iteration #  4     ecut=    65.00 Ry     beta= 0.70
     Davidson diagonalization with overlap
     ethr =  9.04E-03,  avg # of iterations = 12.1

     total cpu time spent up to now is     1324.7 secs

     total energy              =   -5045.18045847 Ry
     Harris-Foulkes estimate   =   -5048.93527618 Ry
     estimated scf accuracy    <      12.79952175 Ry

     iteration #  5     ecut=    65.00 Ry     beta= 0.70
     Davidson diagonalization with overlap
     ethr =  2.90E-03,  avg # of iterations =  5.9

     total cpu time spent up to now is     1464.9 secs

     total energy              =   -5047.15488465 Ry
     Harris-Foulkes estimate   =   -5048.54610542 Ry
     estimated scf accuracy    <       5.85382875 Ry

     iteration #  6     ecut=    65.00 Ry     beta= 0.70
     Davidson diagonalization with overlap
     ethr =  1.32E-03,  avg # of iterations = 10.0

     negative rho (up, down):  7.672E-07 0.000E+00

     total cpu time spent up to now is     1586.0 secs

     total energy              =   -5047.32499614 Ry
     Harris-Foulkes estimate   =   -5047.74756712 Ry
     estimated scf accuracy    <       2.94113664 Ry

     iteration #  7     ecut=    65.00 Ry     beta= 0.70
     Davidson diagonalization with overlap
     ethr =  6.65E-04,  avg # of iterations =  2.0

     negative rho (up, down):  8.337E-05 0.000E+00

     total cpu time spent up to now is     1684.8 secs

     total energy              =   -5047.29538280 Ry
     Harris-Foulkes estimate   =   -5047.59378286 Ry
     estimated scf accuracy    <       1.94366546 Ry

     iteration #  8     ecut=    65.00 Ry     beta= 0.70
     Davidson diagonalization with overlap
     ethr =  4.40E-04,  avg # of iterations =  7.6

     negative rho (up, down):  4.493E-04 0.000E+00

     total cpu time spent up to now is     1802.5 secs

     total energy              =   -5047.33193754 Ry
     Harris-Foulkes estimate   =   -5047.62077671 Ry
     estimated scf accuracy    <       1.76729427 Ry

     iteration #  9     ecut=    65.00 Ry     beta= 0.70
     Davidson diagonalization with overlap
     ethr =  4.00E-04,  avg # of iterations =  2.9

     negative rho (up, down):  6.696E-04 0.000E+00

     total cpu time spent up to now is     1903.1 secs

     total energy              =   -5047.41955360 Ry
     Harris-Foulkes estimate   =   -5047.55797617 Ry
     estimated scf accuracy    <       1.11263296 Ry

     iteration # 10     ecut=    65.00 Ry     beta= 0.70
     Davidson diagonalization with overlap
     ethr =  2.52E-04,  avg # of iterations =  8.6

     negative rho (up, down):  5.544E-04 0.000E+00

     total cpu time spent up to now is     2027.9 secs

     total energy              =   -5047.46465876 Ry
     Harris-Foulkes estimate   =   -5047.59509113 Ry
     estimated scf accuracy    <       0.95657634 Ry

     iteration # 11     ecut=    65.00 Ry     beta= 0.70
     Davidson diagonalization with overlap
     ethr =  2.16E-04,  avg # of iterations =  2.0

     negative rho (up, down):  5.460E-04 0.000E+00

     total cpu time spent up to now is     2126.6 secs

     total energy              =   -5047.49703141 Ry
     Harris-Foulkes estimate   =   -5047.53300464 Ry
     estimated scf accuracy    <       0.26646612 Ry

     iteration # 12     ecut=    65.00 Ry     beta= 0.70
     Davidson diagonalization with overlap
     ethr =  6.03E-05,  avg # of iterations =  7.8

     negative rho (up, down):  5.684E-04 0.000E+00

     total cpu time spent up to now is     2237.0 secs

     total energy              =   -5047.50007958 Ry
     Harris-Foulkes estimate   =   -5047.52348919 Ry
     estimated scf accuracy    <       0.10879162 Ry

     iteration # 13     ecut=    65.00 Ry     beta= 0.70
     Davidson diagonalization with overlap
     ethr =  2.46E-05,  avg # of iterations =  6.1

     negative rho (up, down):  5.733E-04 0.000E+00

     total cpu time spent up to now is     2426.2 secs

     total energy              =   -5047.48509742 Ry
     Harris-Foulkes estimate   =   -5047.55399205 Ry
     estimated scf accuracy    <       0.30350402 Ry

     iteration # 14     ecut=    65.00 Ry     beta= 0.70
     Davidson diagonalization with overlap
     ethr =  2.46E-05,  avg # of iterations = 12.4

     negative rho (up, down):  6.808E-04 0.000E+00

     total cpu time spent up to now is     2578.4 secs

     total energy              =   -5047.51817311 Ry
     Harris-Foulkes estimate   =   -5047.53062744 Ry
     estimated scf accuracy    <       0.06427512 Ry

     iteration # 15     ecut=    65.00 Ry     beta= 0.70
     Davidson diagonalization with overlap
     c_bands:  1 eigenvalues not converged
     ethr =  1.45E-05,  avg # of iterations =  7.0

     negative rho (up, down):  7.288E-04 0.000E+00

     total cpu time spent up to now is     2687.0 secs

     total energy              =   -5047.52124452 Ry
     Harris-Foulkes estimate   =   -5047.52810024 Ry
     estimated scf accuracy    <       0.02950315 Ry

     iteration # 16     ecut=    65.00 Ry     beta= 0.70
     Davidson diagonalization with overlap
     ethr =  6.67E-06,  avg # of iterations = 14.4

     negative rho (up, down):  7.798E-04 0.000E+00

     total cpu time spent up to now is     2823.8 secs

     total energy              =   -5047.52507007 Ry
     Harris-Foulkes estimate   =   -5047.52745284 Ry
     estimated scf accuracy    <       0.01035981 Ry

     iteration # 17     ecut=    65.00 Ry     beta= 0.70
     Davidson diagonalization with overlap
     ethr =  2.34E-06,  avg # of iterations =  9.5

     negative rho (up, down):  7.685E-04 0.000E+00

     total cpu time spent up to now is     2962.6 secs

     total energy              =   -5047.52492044 Ry
     Harris-Foulkes estimate   =   -5047.52847562 Ry
     estimated scf accuracy    <       0.01623871 Ry

     iteration # 18     ecut=    65.00 Ry     beta= 0.70
     Davidson diagonalization with overlap
     c_bands:  2 eigenvalues not converged
     ethr =  2.34E-06,  avg # of iterations = 16.5

     negative rho (up, down):  7.846E-04 0.000E+00

     total cpu time spent up to now is     3103.4 secs

     total energy              =   -5047.52627038 Ry
     Harris-Foulkes estimate   =   -5047.52759259 Ry
     estimated scf accuracy    <       0.00726247 Ry

     iteration # 19     ecut=    65.00 Ry     beta= 0.70
     Davidson diagonalization with overlap
     ethr =  1.64E-06,  avg # of iterations =  8.8

     negative rho (up, down):  8.013E-04 0.000E+00

     total cpu time spent up to now is     3216.2 secs

     total energy              =   -5047.52677760 Ry
     Harris-Foulkes estimate   =   -5047.52724867 Ry
     estimated scf accuracy    <       0.00296404 Ry

     iteration # 20     ecut=    65.00 Ry     beta= 0.70
     Davidson diagonalization with overlap
     c_bands:  2 eigenvalues not converged
     ethr =  6.71E-07,  avg # of iterations =  7.9

     negative rho (up, down):  8.091E-04 0.000E+00

     total cpu time spent up to now is     3334.1 secs

     total energy              =   -5047.52695601 Ry
     Harris-Foulkes estimate   =   -5047.52729350 Ry
     estimated scf accuracy    <       0.00156208 Ry

     iteration # 21     ecut=    65.00 Ry     beta= 0.70
     Davidson diagonalization with overlap
     ethr =  3.53E-07,  avg # of iterations = 12.4

     negative rho (up, down):  7.989E-04 0.000E+00

     total cpu time spent up to now is     3466.1 secs

     total energy              =   -5047.52689876 Ry
     Harris-Foulkes estimate   =   -5047.52743935 Ry
     estimated scf accuracy    <       0.00252518 Ry

     iteration # 22     ecut=    65.00 Ry     beta= 0.70
     Davidson diagonalization with overlap
     ethr =  3.53E-07,  avg # of iterations =  5.5

     negative rho (up, down):  8.065E-04 0.000E+00

     total cpu time spent up to now is     3572.5 secs

     total energy              =   -5047.52715350 Ry
     Harris-Foulkes estimate   =   -5047.52722543 Ry
     estimated scf accuracy    <       0.00041492 Ry

     iteration # 23     ecut=    65.00 Ry     beta= 0.70
     Davidson diagonalization with overlap
     ethr =  9.39E-08,  avg # of iterations =  6.0

     negative rho (up, down):  8.085E-04 0.000E+00

     total cpu time spent up to now is     3742.5 secs

     total energy              =   -5047.52703663 Ry
     Harris-Foulkes estimate   =   -5047.52753093 Ry
     estimated scf accuracy    <       0.00488924 Ry

     iteration # 24     ecut=    65.00 Ry     beta= 0.70
     Davidson diagonalization with overlap
     ethr =  9.39E-08,  avg # of iterations =  8.0

     negative rho (up, down):  8.078E-04 0.000E+00

     total cpu time spent up to now is     3861.3 secs

     total energy              =   -5047.52723544 Ry
     Harris-Foulkes estimate   =   -5047.52724099 Ry
     estimated scf accuracy    <       0.00022677 Ry

     iteration # 25     ecut=    65.00 Ry     beta= 0.70
     Davidson diagonalization with overlap
     ethr =  5.13E-08,  avg # of iterations =  5.4

     negative rho (up, down):  8.079E-04 0.000E+00

     total cpu time spent up to now is     3979.7 secs

     total energy              =   -5047.52726979 Ry
     Harris-Foulkes estimate   =   -5047.52728131 Ry
     estimated scf accuracy    <       0.00028654 Ry

     iteration # 26     ecut=    65.00 Ry     beta= 0.70
     Davidson diagonalization with overlap
     ethr =  5.13E-08,  avg # of iterations =  5.6

     negative rho (up, down):  8.079E-04 0.000E+00

     total cpu time spent up to now is     4086.1 secs

     total energy              =   -5047.52727614 Ry
     Harris-Foulkes estimate   =   -5047.52731111 Ry
     estimated scf accuracy    <       0.00026430 Ry

     iteration # 27     ecut=    65.00 Ry     beta= 0.70
     Davidson diagonalization with overlap
     ethr =  5.13E-08,  avg # of iterations =  3.0

     negative rho (up, down):  8.081E-04 0.000E+00

     total cpu time spent up to now is     4186.4 secs

     total energy              =   -5047.52730303 Ry
     Harris-Foulkes estimate   =   -5047.52731663 Ry
     estimated scf accuracy    <       0.00019485 Ry

     iteration # 28     ecut=    65.00 Ry     beta= 0.70
     Davidson diagonalization with overlap
     ethr =  4.41E-08,  avg # of iterations =  2.5

     negative rho (up, down):  8.080E-04 0.000E+00

     total cpu time spent up to now is     4285.3 secs

     total energy              =   -5047.52732350 Ry
     Harris-Foulkes estimate   =   -5047.52731627 Ry
     estimated scf accuracy    <       0.00010006 Ry

     iteration # 29     ecut=    65.00 Ry     beta= 0.70
     Davidson diagonalization with overlap
     ethr =  2.26E-08,  avg # of iterations =  5.1

     negative rho (up, down):  8.079E-04 0.000E+00

     total cpu time spent up to now is     4389.6 secs

     total energy              =   -5047.52733133 Ry
     Harris-Foulkes estimate   =   -5047.52733317 Ry
     estimated scf accuracy    <       0.00010422 Ry

     iteration # 30     ecut=    65.00 Ry     beta= 0.70
     Davidson diagonalization with overlap
     ethr =  2.26E-08,  avg # of iterations =  1.4

     negative rho (up, down):  8.077E-04 0.000E+00

     total cpu time spent up to now is     4486.7 secs

     total energy              =   -5047.52735780 Ry
     Harris-Foulkes estimate   =   -5047.52733487 Ry
     estimated scf accuracy    <       0.00007330 Ry

     iteration # 31     ecut=    65.00 Ry     beta= 0.70
     Davidson diagonalization with overlap
     ethr =  1.66E-08,  avg # of iterations =  6.0

     negative rho (up, down):  8.074E-04 0.000E+00

     total cpu time spent up to now is     4594.4 secs

     total energy              =   -5047.52738423 Ry
     Harris-Foulkes estimate   =   -5047.52737106 Ry
     estimated scf accuracy    <       0.00008321 Ry

     iteration # 32     ecut=    65.00 Ry     beta= 0.70
     Davidson diagonalization with overlap
     ethr =  1.66E-08,  avg # of iterations =  6.1

     negative rho (up, down):  8.068E-04 0.000E+00

     total cpu time spent up to now is     4701.8 secs

     total energy              =   -5047.52739267 Ry
     Harris-Foulkes estimate   =   -5047.52739920 Ry
     estimated scf accuracy    <       0.00008795 Ry

     iteration # 33     ecut=    65.00 Ry     beta= 0.70
     Davidson diagonalization with overlap
     ethr =  1.66E-08,  avg # of iterations =  6.2

     negative rho (up, down):  8.066E-04 0.000E+00

     total cpu time spent up to now is     4825.3 secs

     total energy              =   -5047.52740697 Ry
     Harris-Foulkes estimate   =   -5047.52746415 Ry
     estimated scf accuracy    <       0.00048440 Ry

     iteration # 34     ecut=    65.00 Ry     beta= 0.70
     Davidson diagonalization with overlap
     ethr =  1.66E-08,  avg # of iterations =  7.0

     negative rho (up, down):  8.075E-04 0.000E+00

     total cpu time spent up to now is     4942.8 secs

     total energy              =   -5047.52741326 Ry
     Harris-Foulkes estimate   =   -5047.52744798 Ry
     estimated scf accuracy    <       0.00009191 Ry

     iteration # 35     ecut=    65.00 Ry     beta= 0.70
     Davidson diagonalization with overlap
     ethr =  1.66E-08,  avg # of iterations =  5.5

     negative rho (up, down):  8.077E-04 0.000E+00

     total cpu time spent up to now is     5095.0 secs

     total energy              =   -5047.52738306 Ry
     Harris-Foulkes estimate   =   -5047.52748057 Ry
     estimated scf accuracy    <       0.00078006 Ry

     iteration # 36     ecut=    65.00 Ry     beta= 0.70
     Davidson diagonalization with overlap
     ethr =  1.66E-08,  avg # of iterations =  6.6

     negative rho (up, down):  8.074E-04 0.000E+00

     total cpu time spent up to now is     5238.2 secs

     total energy              =   -5047.52723175 Ry
     Harris-Foulkes estimate   =   -5047.52746351 Ry
     estimated scf accuracy    <       0.00010859 Ry

     iteration # 37     ecut=    65.00 Ry     beta= 0.70
     Davidson diagonalization with overlap
     ethr =  1.66E-08,  avg # of iterations =  8.1

     negative rho (up, down):  8.075E-04 0.000E+00

     total cpu time spent up to now is     5369.8 secs

     total energy              =   -5047.52743219 Ry
     Harris-Foulkes estimate   =   -5047.52744277 Ry
     estimated scf accuracy    <       0.00012102 Ry

     iteration # 38     ecut=    65.00 Ry     beta= 0.70
     Davidson diagonalization with overlap
     ethr =  1.66E-08,  avg # of iterations =  8.0

     negative rho (up, down):  8.075E-04 0.000E+00

     total cpu time spent up to now is     5486.4 secs

     total energy              =   -5047.52749470 Ry
     Harris-Foulkes estimate   =   -5047.52747990 Ry
     estimated scf accuracy    <       0.00008376 Ry

     iteration # 39     ecut=    65.00 Ry     beta= 0.70
     Davidson diagonalization with overlap
     ethr =  1.66E-08,  avg # of iterations =  5.9

     negative rho (up, down):  8.081E-04 0.000E+00

     total cpu time spent up to now is     5592.9 secs

     total energy              =   -5047.52749709 Ry
     Harris-Foulkes estimate   =   -5047.52750731 Ry
     estimated scf accuracy    <       0.00003177 Ry

     iteration # 40     ecut=    65.00 Ry     beta= 0.70
     Davidson diagonalization with overlap
     ethr =  7.19E-09,  avg # of iterations =  7.0

     negative rho (up, down):  8.079E-04 0.000E+00

     total cpu time spent up to now is     5709.4 secs

     total energy              =   -5047.52750867 Ry
     Harris-Foulkes estimate   =   -5047.52752042 Ry
     estimated scf accuracy    <       0.00002184 Ry

     iteration # 41     ecut=    65.00 Ry     beta= 0.70
     Davidson diagonalization with overlap
     ethr =  4.94E-09,  avg # of iterations =  6.5

     negative rho (up, down):  8.080E-04 0.000E+00

     total cpu time spent up to now is     5827.0 secs

     total energy              =   -5047.52751729 Ry
     Harris-Foulkes estimate   =   -5047.52751977 Ry
     estimated scf accuracy    <       0.00003484 Ry

     iteration # 42     ecut=    65.00 Ry     beta= 0.70
     Davidson diagonalization with overlap
     ethr =  4.94E-09,  avg # of iterations =  6.1

     negative rho (up, down):  8.079E-04 0.000E+00

     total cpu time spent up to now is     5933.5 secs

     total energy              =   -5047.52752208 Ry
     Harris-Foulkes estimate   =   -5047.52752326 Ry
     estimated scf accuracy    <       0.00000218 Ry

     iteration # 43     ecut=    65.00 Ry     beta= 0.70
     Davidson diagonalization with overlap
     ethr =  4.93E-10,  avg # of iterations =  5.1

     negative rho (up, down):  8.078E-04 0.000E+00

     total cpu time spent up to now is     6121.4 secs

     total energy              =   -5047.52752167 Ry
     Harris-Foulkes estimate   =   -5047.52752504 Ry
     estimated scf accuracy    <       0.00001889 Ry

     iteration # 44     ecut=    65.00 Ry     beta= 0.70
     Davidson diagonalization with overlap
     ethr =  4.93E-10,  avg # of iterations =  6.5

     negative rho (up, down):  8.078E-04 0.000E+00

     total cpu time spent up to now is     6256.7 secs

     total energy              =   -5047.52752372 Ry
     Harris-Foulkes estimate   =   -5047.52752392 Ry
     estimated scf accuracy    <       0.00000089 Ry

     iteration # 45     ecut=    65.00 Ry     beta= 0.70
     Davidson diagonalization with overlap
     ethr =  2.01E-10,  avg # of iterations =  5.0

     negative rho (up, down):  8.078E-04 0.000E+00

     total cpu time spent up to now is     6677.4 secs

     total energy              =   -5047.52752382 Ry
     Harris-Foulkes estimate   =   -5047.52752471 Ry
     estimated scf accuracy    <       0.00000574 Ry

     iteration # 46     ecut=    65.00 Ry     beta= 0.70
     Davidson diagonalization with overlap
     ethr =  2.01E-10,  avg # of iterations =  6.4

     negative rho (up, down):  8.077E-04 0.000E+00

     total cpu time spent up to now is     6966.1 secs

     total energy              =   -5047.52752435 Ry
     Harris-Foulkes estimate   =   -5047.52752427 Ry
     estimated scf accuracy    <       0.00000042 Ry

     iteration # 47     ecut=    65.00 Ry     beta= 0.70
     Davidson diagonalization with overlap
     ethr =  9.42E-11,  avg # of iterations =  5.5

     negative rho (up, down):  8.077E-04 0.000E+00

     total cpu time spent up to now is     7311.7 secs

     total energy              =   -5047.52752439 Ry
     Harris-Foulkes estimate   =   -5047.52752448 Ry
     estimated scf accuracy    <       0.00000058 Ry

     iteration # 48     ecut=    65.00 Ry     beta= 0.70
     Davidson diagonalization with overlap
     ethr =  9.42E-11,  avg # of iterations =  6.6

     negative rho (up, down):  8.076E-04 0.000E+00

     total cpu time spent up to now is     7569.0 secs

     total energy              =   -5047.52752452 Ry
     Harris-Foulkes estimate   =   -5047.52752448 Ry
     estimated scf accuracy    <       0.00000061 Ry

     iteration # 49     ecut=    65.00 Ry     beta= 0.70
     Davidson diagonalization with overlap
     ethr =  9.42E-11,  avg # of iterations =  5.2

     negative rho (up, down):  8.075E-04 0.000E+00

     total cpu time spent up to now is     7832.2 secs

     total energy              =   -5047.52752463 Ry
     Harris-Foulkes estimate   =   -5047.52752465 Ry
     estimated scf accuracy    <       0.00000059 Ry

     iteration # 50     ecut=    65.00 Ry     beta= 0.70
     Davidson diagonalization with overlap
     ethr =  9.42E-11,  avg # of iterations =  7.0

     negative rho (up, down):  8.075E-04 0.000E+00

     total cpu time spent up to now is     8118.6 secs

     total energy              =   -5047.52752494 Ry
     Harris-Foulkes estimate   =   -5047.52752491 Ry
     estimated scf accuracy    <       0.00000034 Ry

     iteration # 51     ecut=    65.00 Ry     beta= 0.70
     Davidson diagonalization with overlap
     ethr =  7.78E-11,  avg # of iterations =  6.0

     negative rho (up, down):  8.075E-04 0.000E+00

     total cpu time spent up to now is     8397.9 secs

     total energy              =   -5047.52752500 Ry
     Harris-Foulkes estimate   =   -5047.52752505 Ry
     estimated scf accuracy    <       0.00000073 Ry

     iteration # 52     ecut=    65.00 Ry     beta= 0.70
     Davidson diagonalization with overlap
     ethr =  7.78E-11,  avg # of iterations =  6.1

     negative rho (up, down):  8.074E-04 0.000E+00

     total cpu time spent up to now is     8680.0 secs

     total energy              =   -5047.52752513 Ry
     Harris-Foulkes estimate   =   -5047.52752515 Ry
     estimated scf accuracy    <       0.00000058 Ry

     iteration # 53     ecut=    65.00 Ry     beta= 0.70
     Davidson diagonalization with overlap
     ethr =  7.78E-11,  avg # of iterations =  7.0

     negative rho (up, down):  8.075E-04 0.000E+00

     total cpu time spent up to now is     8957.6 secs

     total energy              =   -5047.52752526 Ry
     Harris-Foulkes estimate   =   -5047.52752525 Ry
     estimated scf accuracy    <       0.00000019 Ry

     iteration # 54     ecut=    65.00 Ry     beta= 0.70
     Davidson diagonalization with overlap
     ethr =  4.27E-11,  avg # of iterations =  5.0

     negative rho (up, down):  8.075E-04 0.000E+00

     total cpu time spent up to now is     9309.0 secs

     total energy              =   -5047.52752528 Ry
     Harris-Foulkes estimate   =   -5047.52752535 Ry
     estimated scf accuracy    <       0.00000069 Ry

     iteration # 55     ecut=    65.00 Ry     beta= 0.70
     Davidson diagonalization with overlap
     ethr =  4.27E-11,  avg # of iterations =  6.8

     negative rho (up, down):  8.075E-04 0.000E+00

     total cpu time spent up to now is     9625.9 secs

     total energy              =   -5047.52752535 Ry
     Harris-Foulkes estimate   =   -5047.52752539 Ry
     estimated scf accuracy    <       0.00000043 Ry

     iteration # 56     ecut=    65.00 Ry     beta= 0.70
     Davidson diagonalization with overlap
     ethr =  4.27E-11,  avg # of iterations =  6.4

     negative rho (up, down):  8.075E-04 0.000E+00

     total cpu time spent up to now is     9934.4 secs

     total energy              =   -5047.52752536 Ry
     Harris-Foulkes estimate   =   -5047.52752551 Ry
     estimated scf accuracy    <       0.00000050 Ry

     iteration # 57     ecut=    65.00 Ry     beta= 0.70
     Davidson diagonalization with overlap
     ethr =  4.27E-11,  avg # of iterations =  7.4

     negative rho (up, down):  8.075E-04 0.000E+00

     total cpu time spent up to now is    10226.1 secs

     total energy              =   -5047.52752562 Ry
     Harris-Foulkes estimate   =   -5047.52752556 Ry
     estimated scf accuracy    <       0.00000008 Ry

     iteration # 58     ecut=    65.00 Ry     beta= 0.70
     Davidson diagonalization with overlap
     ethr =  1.82E-11,  avg # of iterations =  5.2

     negative rho (up, down):  8.075E-04 0.000E+00

     total cpu time spent up to now is    10605.8 secs

     total energy              =   -5047.52752556 Ry
     Harris-Foulkes estimate   =   -5047.52752567 Ry
     estimated scf accuracy    <       0.00000033 Ry

     iteration # 59     ecut=    65.00 Ry     beta= 0.70
     Davidson diagonalization with overlap
     ethr =  1.82E-11,  avg # of iterations =  5.8

     negative rho (up, down):  8.075E-04 0.000E+00

     total cpu time spent up to now is    11041.9 secs

     total energy              =   -5047.52752567 Ry
     Harris-Foulkes estimate   =   -5047.52752575 Ry
     estimated scf accuracy    <       0.00000051 Ry

     iteration # 60     ecut=    65.00 Ry     beta= 0.70
     Davidson diagonalization with overlap
     ethr =  1.82E-11,  avg # of iterations =  6.0

     negative rho (up, down):  8.075E-04 0.000E+00

     total cpu time spent up to now is    11454.7 secs

     total energy              =   -5047.52752570 Ry
     Harris-Foulkes estimate   =   -5047.52752580 Ry
     estimated scf accuracy    <       0.00000046 Ry

     iteration # 61     ecut=    65.00 Ry     beta= 0.70
     Davidson diagonalization with overlap
     ethr =  1.82E-11,  avg # of iterations =  6.0

     negative rho (up, down):  8.075E-04 0.000E+00

     total cpu time spent up to now is    11830.0 secs

     total energy              =   -5047.52752573 Ry
     Harris-Foulkes estimate   =   -5047.52752583 Ry
     estimated scf accuracy    <       0.00000023 Ry

     iteration # 62     ecut=    65.00 Ry     beta= 0.70
     Davidson diagonalization with overlap
     ethr =  1.82E-11,  avg # of iterations =  7.5

     negative rho (up, down):  8.075E-04 0.000E+00

     total cpu time spent up to now is    12156.8 secs

     total energy              =   -5047.52752508 Ry
     Harris-Foulkes estimate   =   -5047.52752586 Ry
     estimated scf accuracy    <       0.00000011 Ry

     iteration # 63     ecut=    65.00 Ry     beta= 0.70
     Davidson diagonalization with overlap
     ethr =  1.82E-11,  avg # of iterations =  6.0

     negative rho (up, down):  8.075E-04 0.000E+00

     total cpu time spent up to now is    12591.3 secs

     total energy              =   -5047.52752505 Ry
     Harris-Foulkes estimate   =   -5047.52752565 Ry
     estimated scf accuracy    <       0.00000072 Ry

     iteration # 64     ecut=    65.00 Ry     beta= 0.70
     Davidson diagonalization with overlap
     ethr =  1.82E-11,  avg # of iterations =  7.4

     negative rho (up, down):  8.075E-04 0.000E+00

     total cpu time spent up to now is    12997.6 secs

     total energy              =   -5047.52752580 Ry
     Harris-Foulkes estimate   =   -5047.52752582 Ry
     estimated scf accuracy    <       0.00000017 Ry

     iteration # 65     ecut=    65.00 Ry     beta= 0.70
     Davidson diagonalization with overlap
     ethr =  1.82E-11,  avg # of iterations =  8.9

     negative rho (up, down):  8.074E-04 0.000E+00

     total cpu time spent up to now is    13282.9 secs

     total energy              =   -5047.52752595 Ry
     Harris-Foulkes estimate   =   -5047.52752588 Ry
     estimated scf accuracy    <       0.00000004 Ry

     iteration # 66     ecut=    65.00 Ry     beta= 0.70
     Davidson diagonalization with overlap
     ethr =  1.02E-11,  avg # of iterations =  6.4

     negative rho (up, down):  8.074E-04 0.000E+00

     total cpu time spent up to now is    13559.8 secs

     total energy              =   -5047.52752596 Ry
     Harris-Foulkes estimate   =   -5047.52752597 Ry
     estimated scf accuracy    <       0.00000007 Ry

     iteration # 67     ecut=    65.00 Ry     beta= 0.70
     Davidson diagonalization with overlap
     ethr =  1.02E-11,  avg # of iterations =  5.5

     negative rho (up, down):  8.074E-04 0.000E+00

     total cpu time spent up to now is    13812.3 secs

     total energy              =   -5047.52752584 Ry
     Harris-Foulkes estimate   =   -5047.52752597 Ry
     estimated scf accuracy    <       0.00000006 Ry

     iteration # 68     ecut=    65.00 Ry     beta= 0.70
     Davidson diagonalization with overlap
     ethr =  1.02E-11,  avg # of iterations =  8.1

     negative rho (up, down):  8.074E-04 0.000E+00

     total cpu time spent up to now is    14125.3 secs

     total energy              =   -5047.52752598 Ry
     Harris-Foulkes estimate   =   -5047.52752595 Ry
     estimated scf accuracy    <       0.00000005 Ry

     iteration # 69     ecut=    65.00 Ry     beta= 0.70
     Davidson diagonalization with overlap
     ethr =  1.02E-11,  avg # of iterations =  6.4

     negative rho (up, down):  8.074E-04 0.000E+00

     total cpu time spent up to now is    14393.9 secs

     total energy              =   -5047.52752598 Ry
     Harris-Foulkes estimate   =   -5047.52752600 Ry
     estimated scf accuracy    <       0.00000010 Ry

     iteration # 70     ecut=    65.00 Ry     beta= 0.70
     Davidson diagonalization with overlap
     ethr =  1.02E-11,  avg # of iterations =  5.9

     negative rho (up, down):  8.074E-04 0.000E+00

     total cpu time spent up to now is    14661.8 secs

     total energy              =   -5047.52752599 Ry
     Harris-Foulkes estimate   =   -5047.52752600 Ry
     estimated scf accuracy    <       0.00000007 Ry

     iteration # 71     ecut=    65.00 Ry     beta= 0.70
     Davidson diagonalization with overlap
     ethr =  1.02E-11,  avg # of iterations =  2.0

     negative rho (up, down):  8.074E-04 0.000E+00

     total cpu time spent up to now is    14892.7 secs

     total energy              =   -5047.52752597 Ry
     Harris-Foulkes estimate   =   -5047.52752600 Ry
     estimated scf accuracy    <       0.00000004 Ry

     iteration # 72     ecut=    65.00 Ry     beta= 0.70
     Davidson diagonalization with overlap
     ethr =  9.62E-12,  avg # of iterations =  5.8

     negative rho (up, down):  8.074E-04 0.000E+00

     total cpu time spent up to now is    15181.9 secs

     total energy              =   -5047.52752596 Ry
     Harris-Foulkes estimate   =   -5047.52752599 Ry
     estimated scf accuracy    <       0.00000007 Ry

     iteration # 73     ecut=    65.00 Ry     beta= 0.70
     Davidson diagonalization with overlap
     ethr =  9.62E-12,  avg # of iterations =  5.4

     negative rho (up, down):  8.074E-04 0.000E+00

     total cpu time spent up to now is    15632.3 secs

     total energy              =   -5047.52752595 Ry
     Harris-Foulkes estimate   =   -5047.52752604 Ry
     estimated scf accuracy    <       0.00000071 Ry

     iteration # 74     ecut=    65.00 Ry     beta= 0.70
     Davidson diagonalization with overlap
     ethr =  9.62E-12,  avg # of iterations =  7.0

     negative rho (up, down):  8.074E-04 0.000E+00

     total cpu time spent up to now is    15980.0 secs

     total energy              =   -5047.52752600 Ry
     Harris-Foulkes estimate   =   -5047.52752600 Ry
     estimated scf accuracy    <       0.00000004 Ry

     iteration # 75     ecut=    65.00 Ry     beta= 0.70
     Davidson diagonalization with overlap
     ethr =  9.23E-12,  avg # of iterations =  2.5

     negative rho (up, down):  8.074E-04 0.000E+00

     total cpu time spent up to now is    16213.0 secs

     total energy              =   -5047.52752600 Ry
     Harris-Foulkes estimate   =   -5047.52752600 Ry
     estimated scf accuracy    <       0.00000001 Ry

     iteration # 76     ecut=    65.00 Ry     beta= 0.70
     Davidson diagonalization with overlap
     ethr =  2.78E-12,  avg # of iterations =  5.1

     negative rho (up, down):  8.074E-04 0.000E+00

     total cpu time spent up to now is    16485.4 secs

     total energy              =   -5047.52752600 Ry
     Harris-Foulkes estimate   =   -5047.52752600 Ry
     estimated scf accuracy    <       0.00000002 Ry

     iteration # 77     ecut=    65.00 Ry     beta= 0.70
     Davidson diagonalization with overlap
     ethr =  2.78E-12,  avg # of iterations =  6.9

     negative rho (up, down):  8.074E-04 0.000E+00

     total cpu time spent up to now is    16781.3 secs

     total energy              =   -5047.52752600 Ry
     Harris-Foulkes estimate   =   -5047.52752601 Ry
     estimated scf accuracy    <       0.00000003 Ry

     iteration # 78     ecut=    65.00 Ry     beta= 0.70
     Davidson diagonalization with overlap
     ethr =  2.78E-12,  avg # of iterations =  6.2

     negative rho (up, down):  8.074E-04 0.000E+00

     total cpu time spent up to now is    17047.3 secs

     total energy              =   -5047.52752600 Ry
     Harris-Foulkes estimate   =   -5047.52752601 Ry
     estimated scf accuracy    <       0.00000001 Ry

     iteration # 79     ecut=    65.00 Ry     beta= 0.70
     Davidson diagonalization with overlap
     ethr =  2.78E-12,  avg # of iterations =  8.1

     negative rho (up, down):  8.074E-04 0.000E+00

     total cpu time spent up to now is    17322.2 secs

     total energy              =   -5047.52752601 Ry
     Harris-Foulkes estimate   =   -5047.52752601 Ry
     estimated scf accuracy    <          9.5E-09 Ry

     iteration # 80     ecut=    65.00 Ry     beta= 0.70
     Davidson diagonalization with overlap
     ethr =  2.15E-12,  avg # of iterations =  6.1

     negative rho (up, down):  8.074E-04 0.000E+00

     total cpu time spent up to now is    17578.0 secs

     total energy              =   -5047.52752601 Ry
     Harris-Foulkes estimate   =   -5047.52752601 Ry
     estimated scf accuracy    <       0.00000001 Ry

     iteration # 81     ecut=    65.00 Ry     beta= 0.70
     Davidson diagonalization with overlap
     ethr =  2.15E-12,  avg # of iterations =  6.0

     negative rho (up, down):  8.074E-04 0.000E+00

     total cpu time spent up to now is    17847.1 secs

     total energy              =   -5047.52752600 Ry
     Harris-Foulkes estimate   =   -5047.52752601 Ry
     estimated scf accuracy    <       0.00000001 Ry

     iteration # 82     ecut=    65.00 Ry     beta= 0.70
     Davidson diagonalization with overlap
     ethr =  2.15E-12,  avg # of iterations =  6.0

     negative rho (up, down):  8.074E-04 0.000E+00

     total cpu time spent up to now is    18127.4 secs

     total energy              =   -5047.52752600 Ry
     Harris-Foulkes estimate   =   -5047.52752601 Ry
     estimated scf accuracy    <          9.3E-09 Ry

     iteration # 83     ecut=    65.00 Ry     beta= 0.70
     Davidson diagonalization with overlap
     ethr =  2.10E-12,  avg # of iterations =  5.5

     negative rho (up, down):  8.074E-04 0.000E+00

     total cpu time spent up to now is    18525.9 secs

     total energy              =   -5047.52752600 Ry
     Harris-Foulkes estimate   =   -5047.52752601 Ry
     estimated scf accuracy    <       0.00000010 Ry

     iteration # 84     ecut=    65.00 Ry     beta= 0.70
     Davidson diagonalization with overlap
     ethr =  2.10E-12,  avg # of iterations =  7.2

     negative rho (up, down):  8.074E-04 0.000E+00

     total cpu time spent up to now is    18830.1 secs

     total energy              =   -5047.52752601 Ry
     Harris-Foulkes estimate   =   -5047.52752601 Ry
     estimated scf accuracy    <          7.5E-09 Ry

     iteration # 85     ecut=    65.00 Ry     beta= 0.70
     Davidson diagonalization with overlap
     ethr =  1.69E-12,  avg # of iterations =  4.8

     negative rho (up, down):  8.074E-04 0.000E+00

     total cpu time spent up to now is    19080.3 secs

     total energy              =   -5047.52752601 Ry
     Harris-Foulkes estimate   =   -5047.52752601 Ry
     estimated scf accuracy    <          2.0E-09 Ry

     iteration # 86     ecut=    65.00 Ry     beta= 0.70
     Davidson diagonalization with overlap
     ethr =  4.42E-13,  avg # of iterations =  5.0

     negative rho (up, down):  8.074E-04 0.000E+00

     total cpu time spent up to now is    19541.3 secs

     total energy              =   -5047.52752601 Ry
     Harris-Foulkes estimate   =   -5047.52752601 Ry
     estimated scf accuracy    <       0.00000001 Ry

     iteration # 87     ecut=    65.00 Ry     beta= 0.70
     Davidson diagonalization with overlap
     ethr =  4.42E-13,  avg # of iterations =  6.2

     negative rho (up, down):  8.074E-04 0.000E+00

     total cpu time spent up to now is    19914.0 secs

     total energy              =   -5047.52752601 Ry
     Harris-Foulkes estimate   =   -5047.52752601 Ry
     estimated scf accuracy    <          5.6E-09 Ry

     iteration # 88     ecut=    65.00 Ry     beta= 0.70
     Davidson diagonalization with overlap
     ethr =  4.42E-13,  avg # of iterations =  7.5

     negative rho (up, down):  8.074E-04 0.000E+00

     total cpu time spent up to now is    20183.1 secs

     total energy              =   -5047.52752601 Ry
     Harris-Foulkes estimate   =   -5047.52752601 Ry
     estimated scf accuracy    <          2.3E-09 Ry

     iteration # 89     ecut=    65.00 Ry     beta= 0.70
     Davidson diagonalization with overlap
     ethr =  4.42E-13,  avg # of iterations =  5.1

     negative rho (up, down):  8.074E-04 0.000E+00

     total cpu time spent up to now is    20431.0 secs

     total energy              =   -5047.52752601 Ry
     Harris-Foulkes estimate   =   -5047.52752601 Ry
     estimated scf accuracy    <          9.6E-10 Ry

     iteration # 90     ecut=    65.00 Ry     beta= 0.70
     Davidson diagonalization with overlap
     ethr =  2.16E-13,  avg # of iterations =  6.0

     negative rho (up, down):  8.074E-04 0.000E+00

     total cpu time spent up to now is    20698.3 secs

     total energy              =   -5047.52752601 Ry
     Harris-Foulkes estimate   =   -5047.52752601 Ry
     estimated scf accuracy    <          1.1E-09 Ry

     iteration # 91     ecut=    65.00 Ry     beta= 0.70
     Davidson diagonalization with overlap
     ethr =  2.16E-13,  avg # of iterations =  5.8

     negative rho (up, down):  8.074E-04 0.000E+00

     total cpu time spent up to now is    20953.7 secs

     total energy              =   -5047.52752601 Ry
     Harris-Foulkes estimate   =   -5047.52752601 Ry
     estimated scf accuracy    <          6.6E-10 Ry

     iteration # 92     ecut=    65.00 Ry     beta= 0.70
     Davidson diagonalization with overlap
     ethr =  1.49E-13,  avg # of iterations =  3.4

     negative rho (up, down):  8.074E-04 0.000E+00

     total cpu time spent up to now is    21192.3 secs

     total energy              =   -5047.52752601 Ry
     Harris-Foulkes estimate   =   -5047.52752601 Ry
     estimated scf accuracy    <          5.7E-10 Ry

     iteration # 93     ecut=    65.00 Ry     beta= 0.70
     Davidson diagonalization with overlap
     ethr =  1.29E-13,  avg # of iterations =  5.1

     negative rho (up, down):  8.074E-04 0.000E+00

     total cpu time spent up to now is    21658.2 secs

     total energy              =   -5047.52752601 Ry
     Harris-Foulkes estimate   =   -5047.52752601 Ry
     estimated scf accuracy    <          7.6E-09 Ry

     iteration # 94     ecut=    65.00 Ry     beta= 0.70
     Davidson diagonalization with overlap
     ethr =  1.29E-13,  avg # of iterations =  5.0

     negative rho (up, down):  8.074E-04 0.000E+00

     total cpu time spent up to now is    22147.0 secs

     total energy              =   -5047.52752601 Ry
     Harris-Foulkes estimate   =   -5047.52752601 Ry
     estimated scf accuracy    <          2.5E-09 Ry

     iteration # 95     ecut=    65.00 Ry     beta= 0.70
     Davidson diagonalization with overlap
     ethr =  1.29E-13,  avg # of iterations =  7.6

     negative rho (up, down):  8.074E-04 0.000E+00

     total cpu time spent up to now is    22444.7 secs

     total energy              =   -5047.52752601 Ry
     Harris-Foulkes estimate   =   -5047.52752601 Ry
     estimated scf accuracy    <          5.7E-10 Ry

     iteration # 96     ecut=    65.00 Ry     beta= 0.70
     Davidson diagonalization with overlap
     ethr =  1.29E-13,  avg # of iterations =  4.8

     negative rho (up, down):  8.074E-04 0.000E+00

     total cpu time spent up to now is    22691.5 secs

     total energy              =   -5047.52752601 Ry
     Harris-Foulkes estimate   =   -5047.52752601 Ry
     estimated scf accuracy    <          5.1E-10 Ry

     iteration # 97     ecut=    65.00 Ry     beta= 0.70
     Davidson diagonalization with overlap
     ethr =  1.16E-13,  avg # of iterations =  6.2

     negative rho (up, down):  8.074E-04 0.000E+00

     total cpu time spent up to now is    22954.8 secs

     total energy              =   -5047.52752601 Ry
     Harris-Foulkes estimate   =   -5047.52752601 Ry
     estimated scf accuracy    <          6.2E-10 Ry

     iteration # 98     ecut=    65.00 Ry     beta= 0.70
     Davidson diagonalization with overlap
     ethr =  1.16E-13,  avg # of iterations =  6.5

     negative rho (up, down):  8.074E-04 0.000E+00

     total cpu time spent up to now is    23299.4 secs

     total energy              =   -5047.52752601 Ry
     Harris-Foulkes estimate   =   -5047.52752601 Ry
     estimated scf accuracy    <          2.3E-09 Ry

     iteration # 99     ecut=    65.00 Ry     beta= 0.70
     Davidson diagonalization with overlap
     ethr =  1.16E-13,  avg # of iterations =  7.9

     negative rho (up, down):  8.074E-04 0.000E+00

     total cpu time spent up to now is    23610.9 secs

     total energy              =   -5047.52752601 Ry
     Harris-Foulkes estimate   =   -5047.52752601 Ry
     estimated scf accuracy    <          4.2E-10 Ry

     iteration #100     ecut=    65.00 Ry     beta= 0.70
     Davidson diagonalization with overlap
     ethr =  1.00E-13,  avg # of iterations =  1.9

     negative rho (up, down):  8.074E-04 0.000E+00

     total cpu time spent up to now is    23842.6 secs

     total energy              =   -5047.52752601 Ry
     Harris-Foulkes estimate   =   -5047.52752601 Ry
     estimated scf accuracy    <          2.5E-10 Ry

     iteration #101     ecut=    65.00 Ry     beta= 0.70
     Davidson diagonalization with overlap
     ethr =  1.00E-13,  avg # of iterations =  4.8

     negative rho (up, down):  8.074E-04 0.000E+00

     total cpu time spent up to now is    24088.1 secs

     total energy              =   -5047.52752601 Ry
     Harris-Foulkes estimate   =   -5047.52752601 Ry
     estimated scf accuracy    <          2.5E-10 Ry

     iteration #102     ecut=    65.00 Ry     beta= 0.70
     Davidson diagonalization with overlap
     ethr =  1.00E-13,  avg # of iterations =  2.0

     negative rho (up, down):  8.074E-04 0.000E+00

     total cpu time spent up to now is    24319.9 secs

     total energy              =   -5047.52752601 Ry
     Harris-Foulkes estimate   =   -5047.52752601 Ry
     estimated scf accuracy    <          2.1E-10 Ry

     iteration #103     ecut=    65.00 Ry     beta= 0.70
     Davidson diagonalization with overlap
     ethr =  1.00E-13,  avg # of iterations =  5.8

     negative rho (up, down):  8.074E-04 0.000E+00

     total cpu time spent up to now is    24576.3 secs

     total energy              =   -5047.52752601 Ry
     Harris-Foulkes estimate   =   -5047.52752601 Ry
     estimated scf accuracy    <          1.3E-10 Ry

     iteration #104     ecut=    65.00 Ry     beta= 0.70
     Davidson diagonalization with overlap
     ethr =  1.00E-13,  avg # of iterations =  7.2

     negative rho (up, down):  8.074E-04 0.000E+00

     total cpu time spent up to now is    24839.9 secs

     End of self-consistent calculation
 --- enter write_ns ---
 LDA+U parameters:
U( 1)     =  4.00000000
alpha( 1) =  0.00000000
atom    1   Tr[ns(na)] =   4.52511
    eigenvalues: 
  0.319  0.459  0.465  0.493  0.526
    eigenvectors:
  0.000  0.000  0.002  0.632  0.366
  0.998  0.002  0.000  0.000  0.000
  0.000  0.000  0.979  0.014  0.007
  0.000  0.000  0.019  0.354  0.627
  0.002  0.998  0.000  0.000  0.000
    occupations:
  0.505 -0.000 -0.000  0.016  0.000
 -0.000  0.319 -0.000  0.000  0.007
 -0.000 -0.000  0.466 -0.006  0.000
  0.016  0.000 -0.006  0.513 -0.000
  0.000  0.007  0.000 -0.000  0.459
atom    2   Tr[ns(na)] =   4.60864
    eigenvalues: 
  0.310  0.470  0.476  0.491  0.557
    eigenvectors:
  0.000  0.319  0.000  0.390  0.290
  1.000  0.000  0.000  0.000  0.000
  0.000  0.551  0.000  0.449  0.000
  0.000  0.130  0.000  0.160  0.710
  0.000  0.000  1.000  0.000  0.000
    occupations:
  0.503 -0.001  0.009  0.034 -0.000
 -0.001  0.310  0.000  0.000 -0.001
  0.009  0.000  0.479 -0.005  0.000
  0.034  0.000 -0.005  0.535 -0.000
 -0.000 -0.001  0.000 -0.000  0.476
atom    3   Tr[ns(na)] =   4.61294
    eigenvalues: 
  0.319  0.467  0.473  0.493  0.555
    eigenvectors:
  0.000  0.305  0.000  0.379  0.316
  0.999  0.000  0.001  0.000  0.000
  0.000  0.533  0.008  0.458  0.001
  0.000  0.156  0.001  0.160  0.683
  0.001  0.005  0.990  0.003  0.001
    occupations:
  0.505 -0.000 -0.010  0.034 -0.002
 -0.000  0.319  0.002 -0.000 -0.004
 -0.010  0.002  0.479  0.009  0.001
  0.034 -0.000  0.009  0.531 -0.001
 -0.002 -0.004  0.001 -0.001  0.473
atom    4   Tr[ns(na)] =   4.52487
    eigenvalues: 
  0.323  0.453  0.467  0.492  0.528
    eigenvectors:
  0.000  0.000  0.008  0.561  0.432
  0.995  0.005  0.000  0.000  0.000
  0.000  0.000  0.947  0.042  0.011
  0.000  0.000  0.046  0.397  0.557
  0.005  0.995  0.000  0.000  0.000
    occupations:
  0.507 -0.000  0.000  0.018  0.000
 -0.000  0.323 -0.000  0.000 -0.009
  0.000 -0.000  0.469  0.008  0.000
  0.018  0.000  0.008  0.511 -0.000
  0.000 -0.009  0.000 -0.000  0.452
atom   15   Tr[ns(na)] =   4.61344
    eigenvalues: 
  0.317  0.469  0.474  0.489  0.557
    eigenvectors:
  0.000  0.400  0.000  0.305  0.295
  1.000  0.000  0.000  0.000  0.000
  0.000  0.435  0.000  0.565  0.000
  0.000  0.165  0.000  0.130  0.705
  0.000  0.000  1.000  0.000  0.000
    occupations:
  0.501 -0.000  0.008  0.036  0.000
 -0.000  0.317 -0.000  0.000  0.001
  0.008 -0.000  0.480 -0.005  0.000
  0.036  0.000 -0.005  0.534 -0.000
  0.000  0.001  0.000 -0.000  0.474
atom   16   Tr[ns(na)] =   4.52700
    eigenvalues: 
  0.322  0.459  0.465  0.491  0.526
    eigenvectors:
  0.000  0.001  0.003  0.630  0.366
  0.998  0.002  0.000  0.000  0.000
  0.000  0.001  0.979  0.014  0.005
  0.000  0.000  0.017  0.355  0.628
  0.002  0.996  0.001  0.001  0.000
    occupations:
  0.504  0.001 -0.000  0.017 -0.001
  0.001  0.322  0.001 -0.002  0.006
 -0.000  0.001  0.466 -0.005 -0.000
  0.017 -0.002 -0.005  0.513 -0.000
 -0.001  0.006 -0.000 -0.000  0.459
atom   17   Tr[ns(na)] =   4.54148
    eigenvalues: 
  0.338  0.456  0.459  0.491  0.526
    eigenvectors:
  0.000  0.023  0.042  0.595  0.341
  0.989  0.008  0.002  0.000  0.000
  0.000  0.089  0.750  0.145  0.015
  0.000  0.017  0.085  0.254  0.644
  0.010  0.862  0.122  0.006  0.000
    occupations:
  0.501 -0.002 -0.005  0.019 -0.003
 -0.002  0.340  0.003  0.003 -0.012
 -0.005  0.003  0.465  0.013  0.000
  0.019  0.003  0.013  0.510  0.001
 -0.003 -0.012  0.000  0.001  0.456
atom   18   Tr[ns(na)] =   4.62257
    eigenvalues: 
  0.328  0.465  0.476  0.489  0.554
    eigenvectors:
  0.000  0.457  0.000  0.201  0.342
  1.000  0.000  0.000  0.000  0.000
  0.000  0.314  0.000  0.686  0.000
  0.000  0.228  0.000  0.114  0.658
  0.000  0.000  1.000  0.000  0.000
    occupations:
  0.500 -0.000 -0.010  0.039  0.000
 -0.000  0.328 -0.000  0.000 -0.003
 -0.010 -0.000  0.481  0.006  0.000
  0.039  0.000  0.006  0.526 -0.000
  0.000 -0.003  0.000 -0.000  0.475
atom   29   Tr[ns(na)] =   4.51509
    eigenvalues: 
  0.322  0.459  0.461  0.490  0.525
    eigenvectors:
  0.000  0.000  0.000  0.736  0.264
  0.999  0.000  0.001  0.000  0.000
  0.000  0.999  0.000  0.001  0.000
  0.000  0.001  0.000  0.263  0.736
  0.001  0.000  0.999  0.000  0.000
    occupations:
  0.500 -0.000  0.000  0.016  0.000
 -0.000  0.322 -0.000  0.000  0.004
  0.000 -0.000  0.459 -0.001  0.000
  0.016  0.000 -0.001  0.516 -0.000
  0.000  0.004  0.000 -0.000  0.461
atom   30   Tr[ns(na)] =   4.60864
    eigenvalues: 
  0.310  0.470  0.476  0.491  0.557
    eigenvectors:
  0.000  0.319  0.000  0.390  0.290
  1.000  0.000  0.000  0.000  0.000
  0.000  0.551  0.000  0.449  0.000
  0.000  0.130  0.000  0.160  0.710
  0.000  0.000  1.000  0.000  0.000
    occupations:
  0.503  0.001  0.009  0.034  0.000
  0.001  0.310 -0.000 -0.000 -0.001
  0.009 -0.000  0.479 -0.005 -0.000
  0.034 -0.000 -0.005  0.535  0.000
  0.000 -0.001 -0.000  0.000  0.476
atom   31   Tr[ns(na)] =   4.61294
    eigenvalues: 
  0.319  0.467  0.473  0.493  0.555
    eigenvectors:
  0.000  0.305  0.000  0.379  0.316
  0.999  0.000  0.001  0.000  0.000
  0.000  0.533  0.008  0.458  0.001
  0.000  0.156  0.001  0.160  0.683
  0.001  0.005  0.990  0.003  0.001
    occupations:
  0.505  0.000 -0.010  0.034  0.002
  0.000  0.319 -0.002  0.000 -0.004
 -0.010 -0.002  0.479  0.009 -0.001
  0.034  0.000  0.009  0.531  0.001
  0.002 -0.004 -0.001  0.001  0.473
atom   32   Tr[ns(na)] =   4.53528
    eigenvalues: 
  0.340  0.454  0.460  0.494  0.520
    eigenvectors:
  0.000  0.000  0.012  0.537  0.450
  0.992  0.008  0.000  0.000  0.000
  0.000  0.000  0.962  0.036  0.002
  0.000  0.000  0.026  0.427  0.547
  0.008  0.992  0.000  0.000  0.000
    occupations:
  0.505 -0.000 -0.003  0.013  0.000
 -0.000  0.341 -0.000  0.000 -0.010
 -0.003 -0.000  0.461  0.006  0.000
  0.013  0.000  0.006  0.508 -0.000
  0.000 -0.010  0.000 -0.000  0.453
atom   43   Tr[ns(na)] =   4.61105
    eigenvalues: 
  0.316  0.478  0.478  0.481  0.553
    eigenvectors:
  0.000  0.099  0.691  0.000  0.210
  1.000  0.000  0.000  0.000  0.000
  0.000  0.884  0.114  0.000  0.001
  0.000  0.016  0.195  0.000  0.789
  0.000  0.000  0.000  1.000  0.000
    occupations:
  0.494 -0.000  0.001  0.030  0.000
 -0.000  0.316 -0.000  0.000 -0.000
  0.001 -0.000  0.478  0.002  0.000
  0.030  0.000  0.002  0.537 -0.000
  0.000 -0.000  0.000 -0.000  0.481
atom   44   Tr[ns(na)] =   4.52700
    eigenvalues: 
  0.322  0.459  0.465  0.491  0.526
    eigenvectors:
  0.000  0.001  0.003  0.630  0.366
  0.998  0.002  0.000  0.000  0.000
  0.000  0.001  0.979  0.014  0.005
  0.000  0.000  0.017  0.355  0.628
  0.002  0.996  0.001  0.001  0.000
    occupations:
  0.504 -0.001 -0.000  0.017  0.001
 -0.001  0.322 -0.001  0.002  0.006
 -0.000 -0.001  0.466 -0.005  0.000
  0.017  0.002 -0.005  0.513  0.000
  0.001  0.006  0.000  0.000  0.459
atom   45   Tr[ns(na)] =   4.54148
    eigenvalues: 
  0.338  0.456  0.459  0.491  0.526
    eigenvectors:
  0.000  0.023  0.042  0.595  0.341
  0.989  0.008  0.002  0.000  0.000
  0.000  0.089  0.750  0.145  0.015
  0.000  0.017  0.085  0.254  0.644
  0.010  0.862  0.122  0.006  0.000
    occupations:
  0.501  0.002 -0.005  0.019  0.003
  0.002  0.340 -0.003 -0.003 -0.012
 -0.005 -0.003  0.465  0.013 -0.000
  0.019 -0.003  0.013  0.510 -0.001
  0.003 -0.012 -0.000 -0.001  0.456
atom   46   Tr[ns(na)] =   4.27803
    eigenvalues: 
  0.297  0.328  0.427  0.536  0.551
    eigenvectors:
  0.000  0.038  0.000  0.727  0.235
  0.004  0.000  0.996  0.000  0.000
  0.000  0.948  0.000  0.011  0.040
  0.000  0.014  0.000  0.261  0.725
  0.996  0.000  0.004  0.000  0.000
    occupations:
  0.532 -0.000  0.041  0.001  0.000
 -0.000  0.426 -0.000  0.000 -0.008
  0.041 -0.000  0.339  0.027  0.000
  0.001  0.000  0.027  0.544 -0.000
  0.000 -0.008  0.000 -0.000  0.298
N of occupied +U levels =   72.805569
 --- exit write_ns ---

          k = 0.0000 0.0000 0.0000 ( 43483 PWs)   bands (ev):

   -60.3527 -60.2324 -60.2243 -60.1838 -60.1421 -60.1117 -60.1079 -60.1078
   -60.1046 -60.0688 -60.0658 -60.0510 -60.0382 -60.0379 -60.0349 -59.9863
   -34.4579 -34.3873 -34.3580 -34.3372 -34.3123 -34.3078 -34.2933 -34.2886
   -34.2874 -34.1175 -34.1027 -34.0833 -34.0681 -34.0467 -34.0447 -34.0205
   -34.0022 -33.9976 -33.9937 -33.9929 -33.9867 -33.9844 -33.9788 -33.9546
   -33.9509 -33.9465 -33.9442 -33.9427 -33.9230 -33.9214 -33.9196 -33.9080
   -33.9062 -33.9047 -33.8928 -33.8899 -33.8877 -33.8702 -33.8660 -33.8634
   -33.8495 -33.7888 -33.7861 -33.7677 -33.7579 -33.7328 -33.7298 -33.6851
   -13.7537 -13.5037 -13.4384 -13.3128 -12.8267 -12.7483 -12.6512 -12.5698
   -12.5178 -12.5055 -12.4991 -12.4636 -12.4342 -12.3958 -12.3711 -12.3672
   -12.3557 -12.3372 -12.3153 -12.2785 -12.2528 -12.2421 -12.2274 -12.2033
   -12.1889 -12.1417 -12.1094 -12.0914 -12.0065 -11.9442 -11.8978 -11.8949
   -11.2489 -11.2107 -11.1569 -11.0835 -11.0724 -11.0483 -10.9707  -0.9518
    -0.7527  -0.7500  -0.5304  -0.4983  -0.4474  -0.4067  -0.3765  -0.3554
    -0.3325  -0.3242  -0.3019  -0.2935  -0.2409  -0.2330  -0.2015  -0.1697
    -0.1485  -0.1397  -0.1046  -0.0805   0.0232   0.0298   0.1281   0.1867
     0.1985   0.2430   0.3066   0.3360   0.3439   0.3903   0.4501   0.4983
     0.5432   0.6792   0.6909   0.7284   0.8203   0.8761   0.9182   0.9656
     1.0222   1.0748   1.1045   1.1751   1.2331   1.2613   1.2817   1.3573
     1.3858   1.4226   1.4652   1.5197   1.5403   1.5452   1.5798   1.6783
     1.7060   1.7539   1.7921   1.8271   1.8949   1.9172   2.0037   2.1015
     2.1054   2.1542   2.2122   2.2434   2.2462   2.2698   2.3173   2.3213
     2.3498   2.4344   2.4486   2.4717   2.5023   2.5465   2.5517   2.6174
     2.6510   2.6638   2.6824   2.6851   2.7498   2.7506   2.8389   2.9015
     2.9046   2.9261   3.0772   3.1064   3.1614   3.2216   3.2440   3.2616
     3.3248   3.3804   3.4194   3.4651   3.4785   3.5278   3.5384   3.6063
     3.6414   3.7589   3.7592   3.8144   3.8548   3.9475   4.0141   4.0581
[...]
     1.7838   1.7965   1.9149   1.9772   1.9838   1.9996   2.0011   2.0252
     2.0334   2.0445   2.0542   2.0839   2.1061   2.1292   2.1580   2.1615
     2.1977   2.2304   2.2777   2.2969   2.2979   2.3349   2.3887   2.4242
     2.5145   2.5192   2.5981   2.6033   2.6112   2.6365   2.6866   2.7641
     2.8808   2.9317   2.9417   3.0187   3.0364   3.0420   3.1786   3.1846
     3.2608   3.2976   3.3262   3.3530   3.3616   3.4740   3.5508   3.5584
     3.5949   3.6370   3.6810   3.6967   3.7412   3.7649   3.7850   3.8431
     3.8487   3.8842   3.9031   3.9409   6.2359   6.3161   6.3951   6.4827
     6.5017   6.6122   6.6699   6.6702   6.7243   6.7509   7.1476   7.2324
     7.2739   7.2919   7.3119   7.3123   7.3429   7.3741   7.3866   7.4784
     7.5071   7.5131   7.5195   7.5351   7.5550   7.5872   7.6435   7.6963
     7.6994   7.7192   7.7548   7.7555   7.8025   7.8248   7.8671   7.8731
     7.8824   7.9176   7.9185   7.9413   7.9604   7.9857   7.9914   8.0323
     8.0641

          k =-0.5000 0.0000-0.3100 ( 43392 PWs)   bands (ev):

   -60.3406 -60.3375 -60.1088 -60.1018 -60.0876 -60.0550 -60.0540 -60.0319
   -60.0310 -60.0284 -60.0251 -60.0222 -60.0173 -60.0132 -60.0127 -59.9985
   -34.2957 -34.2417 -34.2307 -34.1962 -34.1461 -34.1234 -34.1111 -34.0977
   -34.0475 -34.0403 -34.0368 -34.0168 -34.0158 -34.0141 -34.0112 -34.0008
   -34.0001 -33.9970 -33.9928 -33.9823 -33.9789 -33.9701 -33.9603 -33.9581
   -33.9478 -33.9424 -33.9295 -33.9282 -33.9199 -33.9156 -33.9081 -33.8931
   -33.8887 -33.8847 -33.8713 -33.8711 -33.8661 -33.8604 -33.8532 -33.8531
   -33.8528 -33.8481 -33.8368 -33.8359 -33.8358 -33.8341 -33.8194 -33.8171
   -13.2983 -13.1346 -13.1131 -13.1041 -13.0678 -13.0105 -13.0003 -12.9589
   -12.8682 -12.4575 -12.3664 -12.2348 -12.2334 -12.2144 -12.2102 -12.2082
   -12.1966 -12.1775 -12.1684 -12.1658 -12.1436 -12.1284 -12.1030 -12.0970
   -12.0896 -11.9541 -11.8931 -11.8767 -11.8617 -11.8382 -11.8277 -11.8153
   -11.7679 -11.7399 -11.7376 -11.7321 -11.7022 -11.6706 -11.6617  -0.7540
    -0.7404  -0.7040  -0.6856  -0.6792  -0.6792  -0.6098  -0.6025  -0.5209
    -0.3807  -0.1826  -0.1762  -0.1296  -0.1187  -0.0524  -0.0357  -0.0029
     0.0180   0.0195   0.0568   0.1366   0.1762   0.2981   0.3277   0.3434
     0.4452   0.4455   0.4637   0.4669   0.5370   0.5622   0.5882   0.6180
     0.6906   0.6996   0.7194   0.7652   0.8342   0.8413   0.9286   0.9834
     1.0819   1.1162   1.1626   1.2647   1.2838   1.3317   1.3658   1.3862
     1.4193   1.4320   1.4753   1.5202   1.5354   1.7559   1.7738   1.8172
     1.8793   1.8830   1.9478   1.9683   1.9761   1.9888   2.0086   2.0440
     2.0552   2.0572   2.0578   2.0782   2.0889   2.1198   2.1651   2.1780
     2.1801   2.2065   2.2332   2.2349   2.2888   2.3417   2.3855   2.3877
     2.4255   2.4924   2.5030   2.5432   2.5592   2.6021   2.6353   2.6574
     2.8191   2.9176   2.9975   3.0230   3.1051   3.1473   3.1952   3.2045
     3.2742   3.2889   3.3393   3.3637   3.4166   3.4412   3.5429   3.5727
     3.5851   3.6397   3.6430   3.6598   3.7252   3.7642   3.7868   3.8609
     3.8833   3.9098   3.9110   3.9296   6.2412   6.3415   6.4241   6.5398
     6.5399   6.6156   6.6602   6.6827   6.6978   6.7337   7.1585   7.2642
     7.2879   7.3071   7.3275   7.3449   7.3510   7.3834   7.4349   7.4594
     7.4715   7.5024   7.5246   7.5333   7.6155   7.6178   7.6350   7.6373
     7.6957   7.7119   7.7416   7.7767   7.7813   7.8005   7.8118   7.8652
     7.8674   7.8998   7.9240   7.9244   7.9416   7.9824   7.9947   8.0137
     8.0168

          k =-0.5000-0.4061 0.0000 ( 43484 PWs)   bands (ev):

   -60.3406 -60.3375 -60.1088 -60.1018 -60.0876 -60.0550 -60.0539 -60.0319
   -60.0310 -60.0284 -60.0250 -60.0221 -60.0173 -60.0131 -60.0127 -59.9985
   -34.2957 -34.2417 -34.2307 -34.1963 -34.1462 -34.1235 -34.1110 -34.0979
   -34.0475 -34.0403 -34.0366 -34.0174 -34.0154 -34.0142 -34.0111 -33.9999
   -33.9989 -33.9986 -33.9934 -33.9824 -33.9776 -33.9747 -33.9590 -33.9546
   -33.9494 -33.9435 -33.9274 -33.9239 -33.9223 -33.9221 -33.8976 -33.8890
   -33.8874 -33.8867 -33.8818 -33.8701 -33.8687 -33.8620 -33.8536 -33.8531
   -33.8517 -33.8479 -33.8415 -33.8368 -33.8341 -33.8331 -33.8189 -33.8132
   -13.2988 -13.1854 -13.1087 -13.0898 -13.0443 -12.9980 -12.9736 -12.9454
   -12.8588 -12.4856 -12.3931 -12.2401 -12.2357 -12.2263 -12.2251 -12.2075
   -12.2032 -12.1986 -12.1830 -12.1485 -12.1361 -12.1340 -12.0983 -12.0751
   -12.0428 -11.9492 -11.8974 -11.8591 -11.8430 -11.8399 -11.8370 -11.7827
   -11.7679 -11.7523 -11.7373 -11.7231 -11.7152 -11.7042 -11.6958  -0.7492
    -0.7382  -0.6948  -0.6921  -0.6677  -0.6536  -0.6074  -0.6060  -0.5242
    -0.3810  -0.1817  -0.1377  -0.0675   0.0130   0.0342   0.0373   0.0427
     0.0652   0.0944   0.1000   0.1380   0.3156   0.3164   0.3821   0.4195
     0.4514   0.5195   0.5869   0.5883   0.6132   0.6202   0.6533   0.6693
     0.6716   0.7236   0.7743   0.7884   0.8073   0.8751   0.9030   0.9253
     0.9491   0.9662   0.9741   1.0007   1.0064   1.0259   1.1771   1.2034
     1.2946   1.4537   1.4703   1.4710   1.5363   1.5992   1.6213   1.6315
     1.6511   1.7309   1.7702   1.7799   1.8259   1.8454   1.8632   1.9596
     2.0487   2.0497   2.0620   2.0968   2.1096   2.1307   2.1419   2.1989
     2.1991   2.3095   2.3785   2.3899   2.4735   2.4832   2.5164   2.5246
     2.5878   2.6146   2.6200   2.6626   2.7449   2.7796   2.8676   2.8776
     2.9285   2.9340   2.9576   2.9663   3.0148   3.1788   3.2534   3.3178
     3.3586   3.3663   3.3953   3.4225   3.4528   3.4906   3.5185   3.5370
     3.5382   3.5796   3.5825   3.6395   3.6534   3.6686   3.6902   3.7084
     3.7645   3.7848   3.8003   3.8185   6.2542   6.3523   6.4167   6.4747
     6.5104   6.6128   6.6656   6.6740   6.7193   6.7591   7.1493   7.2390
     7.2747   7.3131   7.3253   7.3460   7.3876   7.4069   7.4262   7.4533
     7.4629   7.4706   7.5193   7.5245   7.6040   7.6290   7.6447   7.6856
     7.7036   7.7177   7.7321   7.7383   7.7665   7.8373   7.8538   7.8917
     7.9163   7.9196   7.9483   7.9566   7.9819   8.0136   8.0142   8.0272
     8.0370

          k =-0.5000-0.4061-0.3100 ( 43472 PWs)   bands (ev):

   -60.3406 -60.3375 -60.1088 -60.1018 -60.0876 -60.0550 -60.0539 -60.0319
   -60.0310 -60.0284 -60.0251 -60.0221 -60.0173 -60.0131 -60.0127 -59.9985
   -34.2957 -34.2417 -34.2307 -34.1963 -34.1462 -34.1234 -34.1109 -34.0980
   -34.0474 -34.0402 -34.0367 -34.0168 -34.0159 -34.0143 -34.0112 -33.9997
   -33.9993 -33.9987 -33.9933 -33.9825 -33.9789 -33.9702 -33.9603 -33.9581
   -33.9478 -33.9424 -33.9295 -33.9282 -33.9200 -33.9156 -33.9082 -33.8932
   -33.8886 -33.8848 -33.8714 -33.8711 -33.8662 -33.8605 -33.8533 -33.8531
   -33.8528 -33.8481 -33.8368 -33.8360 -33.8358 -33.8341 -33.8194 -33.8171
   -13.2855 -13.1494 -13.0876 -13.0581 -13.0556 -13.0355 -13.0306 -12.9900
   -12.8585 -12.4563 -12.3653 -12.2265 -12.2253 -12.2205 -12.2056 -12.2044
   -12.1872 -12.1605 -12.1576 -12.1498 -12.1424 -12.1396 -12.1208 -12.1141
   -12.1119 -11.9503 -11.8981 -11.8634 -11.8462 -11.8435 -11.8404 -11.7805
   -11.7648 -11.7526 -11.7367 -11.7147 -11.7071 -11.7045 -11.6982  -0.7546
    -0.7415  -0.6983  -0.6916  -0.6744  -0.6722  -0.6130  -0.6095  -0.5255
    -0.3781  -0.1688  -0.1330  -0.0400  -0.0392  -0.0318  -0.0255  -0.0112
     0.1465   0.2303   0.2710   0.2947   0.3094   0.3342   0.3380   0.3496
     0.3916   0.4475   0.4976   0.5125   0.5701   0.6272   0.6311   0.7028
     0.7370   0.7980   0.8135   0.8275   0.8330   0.8381   0.8839   0.8867
     0.9469   0.9527   0.9660   0.9852   0.9977   1.0130   1.0973   1.1512
     1.3326   1.3964   1.4678   1.4887   1.5047   1.5256   1.5647   1.6721
     1.7868   1.8496   1.9022   1.9223   1.9263   1.9510   1.9809   2.0009
     2.0130   2.0446   2.0808   2.0980   2.1392   2.1520   2.1564   2.1719
     2.1950   2.2289   2.2381   2.2722   2.2970   2.3755   2.5186   2.5273
     2.5400   2.6060   2.6078   2.6144   2.6709   2.7021   2.8614   2.8842
     2.9059   2.9439   2.9526   2.9941   3.0161   3.2264   3.2741   3.3770
     3.3913   3.4122   3.4212   3.4439   3.4528   3.4756   3.5018   3.5517
     3.5719   3.5746   3.5836   3.5986   3.6769   3.6858   3.7143   3.7219
     3.7343   3.7586   3.7831   3.8013   6.2681   6.3790   6.4288   6.5356
     6.5400   6.6161   6.6569   6.6882   6.6988   6.7412   7.1550   7.2774
     7.3099   7.3318   7.3347   7.3816   7.4168   7.4188   7.4353   7.4426
     7.4595   7.5043   7.5225   7.5267   7.5668   7.5850   7.6596   7.6723
     7.7099   7.7402   7.7547   7.7604   7.7653   7.8148   7.8362   7.8460
     7.8918   7.8997   7.9017   7.9364   7.9574   7.9717   8.0068   8.0320
     8.0370

     the Fermi energy is     5.8582 ev

!    total energy              =   -5047.84180933 Ry
     Harris-Foulkes estimate   =   -5047.84180933 Ry
     estimated scf accuracy    <          8.1E-13 Ry

     total all-electron energy =    -36246.410588 Ry

     The total energy is the sum of the following terms:

     one-electron contribution =   -2372.87511073 Ry
     hartree contribution      =    1354.45646325 Ry
     xc contribution           =    -612.16166192 Ry
     ewald contribution        =   -1930.41539017 Ry
     Dispersion Correction     =      -0.50555768 Ry
     Hubbard energy            =       5.71976705 Ry
     one-center paw contrib.   =   -1491.94430404 Ry
     smearing contrib. (-TS)   =      -0.11601508 Ry

     convergence has been achieved in  14 iterations

     negative rho (up, down):  1.604E-03 0.000E+00

     Forces acting on atoms (cartesian axes, Ry/au):

     atom    1 type  1   force =     0.00000000   -0.00000556   -0.00000507
     atom    2 type  1   force =     0.00000101   -0.00001043   -0.00000092
     atom    3 type  1   force =     0.00000119   -0.00000448   -0.00000179
     atom    4 type  1   force =     0.00000000   -0.00000677   -0.00000830
     atom    5 type  2   force =     0.00000129    0.00000527   -0.00000004
     atom    6 type  2   force =     0.00000000    0.00000793   -0.00000969
     atom    7 type  2   force =     0.00000000    0.00000535   -0.00001640
     atom    8 type  2   force =    -0.00000248    0.00000803    0.00000368
     atom    9 type  2   force =     0.00000000   -0.00000043   -0.00001431
     atom   10 type  2   force =     0.00000147    0.00001192    0.00000943
     atom   11 type  2   force =    -0.00000175    0.00001041    0.00000626
     atom   12 type  2   force =    -0.00000042   -0.00000152    0.00000043
     atom   13 type  2   force =     0.00000000    0.00000319   -0.00000594
     atom   14 type  2   force =     0.00000000   -0.00000338    0.00000208
     atom   15 type  1   force =     0.00000000    0.00000241   -0.00000568
     atom   16 type  1   force =    -0.00000146    0.00000527    0.00000148
     atom   17 type  1   force =     0.00000467   -0.00000053    0.00000077
     atom   18 type  1   force =     0.00000000    0.00000610   -0.00000823
     atom   19 type  2   force =     0.00000303    0.00000881    0.00000129
     atom   20 type  2   force =     0.00000000   -0.00000607   -0.00000182
     atom   21 type  2   force =     0.00000000   -0.00001415   -0.00000403
     atom   22 type  2   force =     0.00000223   -0.00000180   -0.00000155
     atom   23 type  2   force =     0.00000000   -0.00001108    0.00001249
     atom   24 type  2   force =     0.00000778   -0.00000511    0.00000047
     atom   25 type  2   force =    -0.00000326    0.00000225    0.00000496
     atom   26 type  2   force =    -0.00000080   -0.00000945    0.00000105
     atom   27 type  2   force =     0.00000000   -0.00000291   -0.00000125
     atom   28 type  2   force =     0.00000000   -0.00001789   -0.00000175
     atom   29 type  1   force =     0.00000000   -0.00000817   -0.00000284
     atom   30 type  1   force =    -0.00000101   -0.00001043   -0.00000092
     atom   31 type  1   force =    -0.00000119   -0.00000448   -0.00000179
     atom   32 type  1   force =     0.00000000    0.00000642    0.00000039
     atom   33 type  2   force =    -0.00000129    0.00000527   -0.00000004
     atom   34 type  2   force =     0.00000000    0.00000039   -0.00000089
     atom   35 type  2   force =     0.00000000   -0.00000437    0.00000088
     atom   36 type  2   force =     0.00000248    0.00000803    0.00000368
     atom   37 type  2   force =     0.00000000    0.00000738   -0.00000212
     atom   38 type  2   force =    -0.00000147    0.00001192    0.00000943
     atom   39 type  2   force =     0.00000175    0.00001041    0.00000626
     atom   40 type  2   force =     0.00000042   -0.00000152    0.00000043
     atom   41 type  2   force =     0.00000000    0.00000191    0.00000565
     atom   42 type  2   force =     0.00000000   -0.00000624   -0.00000499
     atom   43 type  1   force =     0.00000000    0.00000951    0.00000552
     atom   44 type  1   force =     0.00000146    0.00000527    0.00000148
     atom   45 type  1   force =    -0.00000467   -0.00000053    0.00000077
     atom   46 type  1   force =     0.00000000    0.00000530    0.00000913
     atom   47 type  2   force =    -0.00000303    0.00000881    0.00000129
     atom   48 type  2   force =     0.00000000    0.00000368    0.00000050
     atom   49 type  2   force =     0.00000000    0.00000318    0.00000615
     atom   50 type  2   force =    -0.00000223   -0.00000180   -0.00000155
     atom   51 type  2   force =    -0.00000778   -0.00000511    0.00000047
     atom   52 type  2   force =     0.00000326    0.00000225    0.00000496
     atom   53 type  2   force =     0.00000080   -0.00000945    0.00000105
     atom   54 type  2   force =     0.00000000   -0.00000492    0.00000196
     atom   55 type  2   force =     0.00000000   -0.00000812   -0.00000251

     Total force =     0.000068     Total SCF correction =     0.000003
     Message from routine bfgs:
     history already reset at previous step: stopping

     bfgs converged in  67 scf cycles and  66 bfgs steps
     (criteria: energy <  1.0E-04 Ry, force <  1.0E-05 Ry/Bohr)

     End of BFGS Geometry Optimization

     Final energy   =   -5047.8418093348 Ry
Begin final coordinates

ATOMIC_POSITIONS (angstrom)
V        0.000000000   1.668744172   7.501443256
V        1.784214586   2.705981736   9.823976584
V        1.796919619   2.721356910   1.729513933
V        0.000000000   1.681458598   4.067343338
O        1.787865401   2.181511574   7.851089934
O        0.000000000   2.190940991   9.467131114
O        0.000000000   2.277736490   2.127304662
O        1.819732523   2.149892129   3.704817671
O        0.000000000   0.087180238   4.074210769
O        1.871082659   4.313893091   1.749932568
O        1.776941329   4.296110145   9.831027837
O        1.798041943   2.243833523   0.016768459
O        0.000000000   2.166946913   5.775034531
O        0.000000000   0.077671002   7.470179978
V        0.000000000   6.081281269   7.473665685
V        1.789068390   7.111835107   9.788176665
V        1.764980526   7.096481504   1.672688506
V        0.000000000   6.098624060   4.055202722
O        1.805278966   6.567330606   7.826071971
O        0.000000000   6.626589850   9.423629159
O        0.000000000   6.554184326   2.089772738
O        1.816919252   6.592262426   3.693383489
O        0.000000000   4.506547408   4.096538902
O        1.704696324   8.689575229   1.673086231
O        1.812852987   8.701589788   9.823972521
O        1.789920497   6.606486065  -0.030483681
O        0.000000000   6.608154901   5.761002625
O        0.000000000   4.492146753   7.436471328
V        3.578096708   1.706777279   7.504417309
V        5.371978844   2.705981736   9.823976584
V        5.359273812   2.721356910   1.729513933
V        3.578096708   1.671527639   4.079589348
O        5.368328030   2.181511574   7.851089934
O        3.578096708   2.188937390   9.452794225
O        3.578096708   2.178836125   2.131882174
O        5.336460908   2.149892129   3.704817671
O        3.578096708  -0.066114751   4.215907904
O        5.285110771   4.313893091   1.749932568
O        5.379252101   4.296110145   9.831027837
O        5.358151487   2.243833523   0.016768459
O        3.578096708   2.229476424   5.720145190
O        3.578096708   0.118921413   7.388624051
V        3.578096708   6.000811395   7.535209556
V        5.367125041   7.111835107   9.788176665
V        5.391212904   7.096481504   1.672688506
V        3.578096708   6.976474276   4.110629403
O        5.350914465   6.567330606   7.826071971
O        3.578096708   6.577806308   9.438181456
O        3.578096708   6.740553907   2.105030972
O        5.339274179   6.592262426   3.693383489
O        5.451497107   8.689575229   1.673086231
O        5.343340444   8.701589788   9.823972521
O        5.366272933   6.606486065  -0.030483681
O        3.578096708   6.376354318   5.720160374
O        3.578096708   4.409457383   7.538046077
End final coordinates



     Writing output data file ovac1.save/

     init_run     :     75.69s CPU     76.38s WALL (       1 calls)
     electrons    : 301111.40s CPU 304033.30s WALL (      67 calls)
     update_pot   :    121.00s CPU    121.60s WALL (      66 calls)
     forces       :   5875.64s CPU   5914.14s WALL (      67 calls)

     Called by init_run:
     wfcinit      :     72.15s CPU     72.54s WALL (       1 calls)
     potinit      :      0.78s CPU      0.80s WALL (       1 calls)
     hinit0       :      1.02s CPU      1.05s WALL (       1 calls)

     Called by electrons:
     c_bands      : 265330.47s CPU 267306.49s WALL (    2202 calls)
     sum_band     :  32085.61s CPU  32587.32s WALL (    2202 calls)
     v_of_rho     :    181.82s CPU    205.03s WALL (    2213 calls)
     newd         :   2966.91s CPU   3390.99s WALL (    2213 calls)
     PAW_pot      :    569.46s CPU    570.56s WALL (    2279 calls)
     mix_rho      :     53.07s CPU     56.62s WALL (    2202 calls)

     Called by c_bands:
     init_us_2    :    479.21s CPU    482.86s WALL (   37376 calls)
     cegterg      : 264393.04s CPU 266333.40s WALL (   17616 calls)

     Called by sum_band:
     sum_band:bec :     67.24s CPU     67.45s WALL (   18144 calls)
     addusdens    :   3232.70s CPU   3607.02s WALL (    2202 calls)

     Called by *egterg:
     h_psi        : 135117.99s CPU 135811.77s WALL (   97295 calls)
     s_psi        :  61430.35s CPU  61574.84s WALL (   98367 calls)
     g_psi        :     85.68s CPU     86.31s WALL (   79671 calls)
     cdiaghg      :  21866.82s CPU  22295.62s WALL (   96311 calls)

     Called by h_psi:
     h_psi:pot    : 129184.61s CPU 129658.59s WALL (   97295 calls)
     h_psi:calbec :  61051.11s CPU  61291.65s WALL (   97295 calls)
     vloc_psi     :   8262.47s CPU   8352.56s WALL (   97295 calls)
     add_vuspsi   :  59869.48s CPU  60013.73s WALL (   97295 calls)
     vhpsi        :   5803.00s CPU   5827.07s WALL (   97295 calls)

     General routines
     calbec       :  96733.50s CPU  97121.13s WALL (  499422 calls)
     fft          :    140.26s CPU    160.20s WALL (   29494 calls)
     ffts         :      7.15s CPU      7.73s WALL (    4415 calls)
     fftw         :   9220.56s CPU   9314.42s WALL (26767476 calls)
     interpolate  :     15.89s CPU     17.67s WALL (    2213 calls)
     davcio       :      0.00s CPU      0.02s WALL (       8 calls)

     Parallel routines
     fft_scatt_xy :    664.99s CPU    672.64s WALL (26801385 calls)
     fft_scatt_yz :   4814.51s CPU   4884.54s WALL (26801385 calls)

     Hubbard U routines
     new_ns       :    913.94s CPU    920.82s WALL (    2202 calls)
     vhpsi        :   5803.00s CPU   5827.07s WALL (   97295 calls)
     force_hub    :   2514.08s CPU   2520.96s WALL (      67 calls)

     PWSCF        :   3d14h 3m CPU   3d14h53m WALL


   This run was terminated on:  11:28: 7  30May2024            

=------------------------------------------------------------------------------=
   JOB DONE.
=------------------------------------------------------------------------------=
