
     Program PWSCF v.6.4.1 starts on 10Mar2024 at 23:29:11 

     This program is part of the open-source Quantum ESPRESSO suite
     for quantum simulation of materials; please cite
         "P. Giannozzi et al., J. Phys.:Condens. Matter 21 395502 (2009);
         "P. Giannozzi et al., J. Phys.:Condens. Matter 29 465901 (2017);
          URL http://www.quantum-espresso.org", 
     in publications or presentations arising from this work. More details at
     http://www.quantum-espresso.org/quote

     Parallel version (MPI), running on    32 processors

     MPI processes distributed on     1 nodes
     R & G space division:  proc/nbgrp/npool/nimage =      32
     Reading input from Li_CNT.rlx.in
Warning: card &CELL ignored
Warning: card     CELL_DYNAMICS  = "BFGS" ignored
Warning: card / ignored

     Current dimensions of program PWSCF are:
     Max number of different atomic species (ntypx) = 10
     Max number of k-points (npk) =  40000
     Max angular momentum in pseudopotentials (lmaxx) =  3

     IMPORTANT: XC functional enforced from input :
     Exchange-correlation      = VDW-DF ( 1  4  4  0 1 0)
     Any further DFT definition will be discarded
     Please, verify this is what you really want

               file C.pbesol-n-kjpaw_psl.1.0.0.UPF: wavefunction(s)  2S 2P renormalized

     Subspace diagonalization in iterative solution of the eigenvalue problem:
     one sub-group per band group will be used
     ELPA distributed-memory algorithm (size of sub-group:  4*  4 procs)


     Parallelization info
     --------------------
     sticks:   dense  smooth     PW     G-vecs:    dense   smooth      PW
     Min         211      67     18                13095     2373     346
     Max         212      68     19                13100     2378     353
     Sum        6763    2173    595               419127    76049   11193



     bravais-lattice index     =            0
     lattice parameter (alat)  =      14.0377  a.u.
     unit-cell volume          =    2220.8687 (a.u.)^3
     number of atoms/cell      =           37
     number of atomic types    =            2
     number of electrons       =       147.00
     number of Kohn-Sham states=           89
     kinetic-energy cutoff     =      40.0000  Ry
     charge density cutoff     =     500.0000  Ry
     convergence threshold     =      1.0E-06
     mixing beta               =       0.4000
     number of iterations used =            8  plain     mixing
     Exchange-correlation      = VDW-DF ( 1  4  4  0 1 0)
     nstep                     =          500


     celldm(1)=  14.037750  celldm(2)=   0.000000  celldm(3)=   0.000000
     celldm(4)=   0.000000  celldm(5)=   0.000000  celldm(6)=   0.000000

     crystal axes: (cart. coord. in units of alat)
               a(1) = (   1.000000   0.000000  -0.000000 )  
               a(2) = (  -0.500000   0.866025  -0.000000 )  
               a(3) = (   0.000000  -0.000000   0.927043 )  

     reciprocal axes: (cart. coord. in units 2 pi/alat)
               b(1) = (  1.000000  0.577350  0.000000 )  
               b(2) = (  0.000000  1.154701  0.000000 )  
               b(3) = (  0.000000  0.000000  1.078699 )  


     PseudoPot. # 1 for C  read from file:
     /home/mpicuntureo/pseudos/C.pbesol-n-kjpaw_psl.1.0.0.UPF
     MD5 check sum: f9b2fe17d1f478429498b05d17159f9e
     Pseudo is Projector augmented-wave + core cor, Zval =  4.0
     Generated using "atomic" code by A. Dal Corso v.6.3
     Shape of augmentation charge: PSQ
     Using radial grid of 1073 points,  4 beta functions with: 
                l(1) =   0
                l(2) =   0
                l(3) =   1
                l(4) =   1
     Q(r) pseudized with 0 coefficients 


     PseudoPot. # 2 for Li read from file:
     /home/mpicuntureo/pseudos/Li.pbesol-sl-kjpaw_psl.1.0.0.UPF
     MD5 check sum: eef8ea5bb9be16d4f57185b44daa939b
     Pseudo is Projector augmented-wave, Zval =  3.0
     Generated using "atomic" code by A. Dal Corso v.6.3
     Shape of augmentation charge: PSQ
     Using radial grid of 1017 points,  4 beta functions with: 
                l(1) =   0
                l(2) =   0
                l(3) =   1
                l(4) =   1
     Q(r) pseudized with 0 coefficients 


     vdW kernel table read from file vdW_kernel_table
     MD5 check sum: 8c4337f4b28e1601c069d7ef7b6561bc

     atomic species   valence    mass     pseudopotential
        C              4.00    12.01100     C ( 1.00)
        Li             3.00     6.94100     Li( 1.00)

     No symmetry found



   Cartesian axes

     site n.     atom                  positions (alat units)
         1           C   tau(   1) = (   0.0000000   0.0000000   0.0000000  )
         2           C   tau(   2) = (   0.0000000   0.1924501   0.0000000  )
         3           C   tau(   3) = (   0.0000000   0.0000000   0.4635214  )
         4           C   tau(   4) = (   0.1666667   0.0962250   0.4635214  )
         5           C   tau(   5) = (  -0.1666667   0.2886751   0.0000000  )
         6           C   tau(   6) = (  -0.1666667   0.4811252   0.0000000  )
         7           C   tau(   7) = (  -0.1666667   0.2886751   0.4635214  )
         8           C   tau(   8) = (   0.0000000   0.3849002   0.4635214  )
         9           C   tau(   9) = (  -0.3333333   0.5773503   0.0000000  )
        10           C   tau(  10) = (  -0.3333333   0.7698004   0.0000000  )
        11           C   tau(  11) = (  -0.3333333   0.5773503   0.4635214  )
        12           C   tau(  12) = (  -0.1666667   0.6735753   0.4635214  )
        13           C   tau(  13) = (   0.3333333   0.0000000   0.0000000  )
        14           C   tau(  14) = (   0.3333333   0.1924501   0.0000000  )
        15           C   tau(  15) = (   0.3333333   0.0000000   0.4635214  )
        16           C   tau(  16) = (   0.5000000   0.0962250   0.4635214  )
        17           C   tau(  17) = (   0.1666667   0.2886751   0.0000000  )
        18           C   tau(  18) = (   0.1666667   0.4811252   0.0000000  )
        19           C   tau(  19) = (   0.1666667   0.2886751   0.4635214  )
        20           C   tau(  20) = (   0.3333333   0.3849002   0.4635214  )
        21           C   tau(  21) = (   0.0000000   0.5773503   0.0000000  )
        22           C   tau(  22) = (   0.0000000   0.7698004   0.0000000  )
        23           C   tau(  23) = (   0.0000000   0.5773503   0.4635214  )
        24           C   tau(  24) = (   0.1666667   0.6735753   0.4635214  )
        25           C   tau(  25) = (   0.6666667   0.0000000   0.0000000  )
        26           C   tau(  26) = (   0.6666667   0.1924501   0.0000000  )
        27           C   tau(  27) = (   0.6666667   0.0000000   0.4635214  )
        28           C   tau(  28) = (   0.8333333   0.0962250   0.4635214  )
        29           C   tau(  29) = (   0.5000000   0.2886751   0.0000000  )
        30           C   tau(  30) = (   0.5000000   0.4811252   0.0000000  )
        31           C   tau(  31) = (   0.5000000   0.2886751   0.4635214  )
        32           C   tau(  32) = (   0.6666667   0.3849002   0.4635214  )
        33           C   tau(  33) = (   0.3333333   0.5773503   0.0000000  )
        34           C   tau(  34) = (   0.3333333   0.7698004   0.0000000  )
        35           C   tau(  35) = (   0.3333333   0.5773503   0.4635214  )
        36           C   tau(  36) = (   0.5000000   0.6735753   0.4635214  )
        37           Li  tau(  37) = (   0.1641870   0.4738072   0.2314957  )

     number of k points=     8  gaussian smearing, width (Ry)=  0.1000
                       cart. coord. in units 2pi/alat
        k(    1) = (   0.0000000   0.0000000   0.0000000), wk =   0.2500000
        k(    2) = (   0.0000000   0.0000000  -0.5393495), wk =   0.2500000
        k(    3) = (   0.0000000  -0.5773503   0.0000000), wk =   0.2500000
        k(    4) = (   0.0000000  -0.5773503  -0.5393495), wk =   0.2500000
        k(    5) = (   0.5000000  -0.2886751   0.0000000), wk =   0.2500000
        k(    6) = (  -0.5000000  -0.2886751   0.0000000), wk =   0.2500000
        k(    7) = (   0.5000000  -0.2886751  -0.5393495), wk =   0.2500000
        k(    8) = (  -0.5000000  -0.2886751  -0.5393495), wk =   0.2500000

     Dense  grid:   419127 G-vectors     FFT dimensions: ( 100, 100,  96)

     Smooth grid:    76049 G-vectors     FFT dimensions: (  60,  60,  54)

     Estimated max dynamical RAM per process >      45.57 MB

     Estimated total dynamical RAM >       1.42 GB

     Check: negative core charge=   -0.000003

     Initial potential from superposition of free atoms

     starting charge  146.99370, renormalised to  147.00000


     %%%%%%%%%%%%%%%%%%%%%%%%%%%%%%%%%%%%%%%%%%%%%%%%%%%%%%%%%%%%%%%%%%%%%%%%
     %                                                                      %
     % You are using vdW-DF, which was implemented by the Thonhauser group. %
     % Please cite the following two papers that made this development      %
     % possible and the two reviews that describe the various versions:     %
     %                                                                      %
     %   T. Thonhauser et al., PRL 115, 136402 (2015).                      %
     %   T. Thonhauser et al., PRB 76, 125112 (2007).                       %
     %   K. Berland et al., Rep. Prog. Phys. 78, 066501 (2015).             %
     %   D.C. Langreth et al., J. Phys.: Condens. Matter 21, 084203 (2009). %
     %                                                                      %
     %                                                                      %
     % If you are calculating the stress with vdW-DF, please also cite:     %
     %                                                                      %
     %   R. Sabatini et al., J. Phys.: Condens. Matter 24, 424209 (2012).   %
     %                                                                      %
     %%%%%%%%%%%%%%%%%%%%%%%%%%%%%%%%%%%%%%%%%%%%%%%%%%%%%%%%%%%%%%%%%%%%%%%%


     Starting wfcs are  149 randomized atomic wfcs
     Checking if some PAW data can be deallocated... 

     total cpu time spent up to now is        5.1 secs

     Self-consistent Calculation

     iteration #  1     ecut=    40.00 Ry     beta= 0.40
     Davidson diagonalization with overlap
     ethr =  1.00E-02,  avg # of iterations =  2.5

     total cpu time spent up to now is       14.3 secs

     total energy              =    -692.73247716 Ry
     Harris-Foulkes estimate   =    -694.34306281 Ry
     estimated scf accuracy    <       3.94710014 Ry

     iteration #  2     ecut=    40.00 Ry     beta= 0.40
     Davidson diagonalization with overlap
     ethr =  2.69E-03,  avg # of iterations =  2.0

     total cpu time spent up to now is       21.3 secs

     total energy              =    -692.62805284 Ry
     Harris-Foulkes estimate   =    -692.98468758 Ry
     estimated scf accuracy    <       0.74527377 Ry

     iteration #  3     ecut=    40.00 Ry     beta= 0.40
     Davidson diagonalization with overlap
     ethr =  5.07E-04,  avg # of iterations =  5.5

     total cpu time spent up to now is       32.7 secs

     total energy              =    -692.74180736 Ry
     Harris-Foulkes estimate   =    -692.75756765 Ry
     estimated scf accuracy    <       0.06346852 Ry

     iteration #  4     ecut=    40.00 Ry     beta= 0.40
     Davidson diagonalization with overlap
     ethr =  4.32E-05,  avg # of iterations =  6.4

     total cpu time spent up to now is       41.5 secs

     total energy              =    -692.75320195 Ry
     Harris-Foulkes estimate   =    -692.75216340 Ry
     estimated scf accuracy    <       0.01065573 Ry

     iteration #  5     ecut=    40.00 Ry     beta= 0.40
     Davidson diagonalization with overlap
     ethr =  7.25E-06,  avg # of iterations =  2.9

     total cpu time spent up to now is       45.0 secs

     total energy              =    -692.75408056 Ry
     Harris-Foulkes estimate   =    -692.75408938 Ry
     estimated scf accuracy    <       0.00066366 Ry

     iteration #  6     ecut=    40.00 Ry     beta= 0.40
     Davidson diagonalization with overlap
     ethr =  4.51E-07,  avg # of iterations =  3.8

     total cpu time spent up to now is       48.8 secs

     total energy              =    -692.75418320 Ry
     Harris-Foulkes estimate   =    -692.75418468 Ry
     estimated scf accuracy    <       0.00003312 Ry

     iteration #  7     ecut=    40.00 Ry     beta= 0.40
     Davidson diagonalization with overlap
     ethr =  2.25E-08,  avg # of iterations =  2.9

     total cpu time spent up to now is       56.5 secs

     total energy              =    -692.75419270 Ry
     Harris-Foulkes estimate   =    -692.75419136 Ry
     estimated scf accuracy    <       0.00000503 Ry

     iteration #  8     ecut=    40.00 Ry     beta= 0.40
     Davidson diagonalization with overlap
     ethr =  3.42E-09,  avg # of iterations =  3.0

     total cpu time spent up to now is       64.7 secs

     total energy              =    -692.75419420 Ry
     Harris-Foulkes estimate   =    -692.75419338 Ry
     estimated scf accuracy    <       0.00000100 Ry

     iteration #  9     ecut=    40.00 Ry     beta= 0.40
     Davidson diagonalization with overlap
     ethr =  6.81E-10,  avg # of iterations =  3.0

     total cpu time spent up to now is       73.1 secs

     End of self-consistent calculation

          k = 0.0000 0.0000 0.0000 (  9489 PWs)   bands (ev):

   -40.5577 -12.7063 -12.4837 -10.2974 -10.1896 -10.1887 -10.1733 -10.0420
   -10.0418 -10.0049  -9.9618  -9.9612  -9.8353  -9.8347  -9.7987  -5.8743
    -5.8706  -5.8075  -5.7888  -5.7859  -5.7257  -5.6962  -5.6928  -3.6237
    -3.5493  -3.5452  -3.5356  -2.8573  -2.8519  -2.8449  -2.8415  -2.8373
    -2.8026  -2.7449  -2.7380  -2.7355  -2.7094  -2.7077  -2.6818  -1.5096
     0.1227   0.9410   0.9427   0.9622   1.0016   1.0032   1.0476   1.0698
     1.0698   1.1058   1.1314   1.1324   1.1464   1.3693   1.3753   1.4102
     1.6541   1.6556   1.6981   2.5799   2.9368   2.9409   3.1355   3.1369
     3.1717   3.7105   3.7107   3.7413   3.7424   6.1463   6.1639   6.6900
     6.7090   6.7244   6.8396   7.3935   7.4023  10.8990  11.1631  11.1752
    11.2297  11.2454  11.2498  11.3916  11.8541  12.0727  12.0734  12.0828
    12.0865

          k = 0.0000 0.0000-0.5393 (  9506 PWs)   bands (ev):

   -40.5577 -12.6153 -12.5808 -10.2689 -10.2039 -10.1115 -10.1113 -10.0461
   -10.0441  -9.9459  -9.9458  -9.9353  -9.9338  -9.9157  -9.8924  -5.8285
    -5.8278  -5.8075  -5.7689  -5.7656  -5.7612  -5.7607  -5.7245  -3.6254
    -3.5529  -3.5488  -3.5390  -2.8191  -2.8187  -2.8148  -2.8052  -2.8019
    -2.7878  -2.7868  -2.7751  -2.7667  -2.7377  -2.7364  -2.7128  -0.7883
    -0.7410   0.9681   0.9682   0.9687   0.9819   0.9843   1.0427   1.0780
     1.0781   1.1234   1.1245   1.1252   1.1282   1.8201   1.9807   1.9837
     2.0898   2.1816   2.1909   2.3288   2.3323   2.3515   2.3524   2.3596
     2.3993   3.7119   3.7120   3.7389   3.7402   6.6401   6.6510   6.6998
     6.7696   6.7699   6.7942   6.7988   6.8641  11.2936  11.4350  11.4473
    11.4954  11.4973  11.5835  11.7001  11.7010  11.7191  11.7254  11.7369
    11.7712

          k = 0.0000-0.5774 0.0000 (  9510 PWs)   bands (ev):

   -40.5577 -12.1355 -11.9746 -11.9424 -11.7357 -10.7621 -10.7512 -10.5722
   -10.5256  -8.3415  -8.3124  -8.3058  -8.2591  -8.1749  -8.1332  -8.1148
    -8.0764  -7.4904  -7.3911  -6.3176  -6.2543  -4.6817  -4.6534  -4.5562
    -4.5509  -4.5472  -4.5219  -4.4176  -4.4158  -1.3066  -1.2486  -1.2109
    -1.1887  -1.1766  -1.1345  -1.0985  -1.0651  -0.9862  -0.9585  -0.9238
    -0.9127  -0.8087  -0.6490   0.3762   0.4277   0.4347   0.4500   0.4524
     0.4888   0.6932   0.7757   0.8373   1.0470   1.4091   1.4429   1.4975
     1.5269   2.2986   2.3838   2.5757   2.5978   2.6535   2.6887   3.4136
     3.5128   3.6377   3.6570   4.1012   4.6130   4.6717   4.7506   4.8340
     4.8594   8.3041   8.7783   8.8312   8.9730   9.0113   9.0260   9.5257
     9.6015   9.6361   9.6840  11.6857  11.7019  12.8067  12.8270  12.9829
    13.2425

          k = 0.0000-0.5774-0.5393 (  9508 PWs)   bands (ev):

   -40.5577 -12.0653 -12.0165 -11.8706 -11.8462 -10.6824 -10.6615 -10.6562
   -10.6208  -8.2857  -8.2732  -8.2404  -8.2149  -8.1966  -8.1933  -8.1806
    -8.1453  -7.4522  -7.4242  -6.3050  -6.2784  -4.6297  -4.6294  -4.6037
    -4.5731  -4.5135  -4.4816  -4.4667  -4.4546  -1.2809  -1.2357  -1.2226
    -1.2012  -1.1807  -1.1089  -1.1044  -1.0980  -0.9777  -0.9376  -0.9345
    -0.9320  -0.1720  -0.0683   0.0909   0.1468   0.3889   0.4352   0.4386
     0.4457   0.4501   0.4816   1.4186   1.4458   1.4495   1.4674   1.4919
     1.5246   1.5417   1.5686   2.5795   2.6006   2.6489   2.6851   3.8789
     4.0080   4.0183   4.1413   4.1559   4.2222   4.2315   4.2722   4.4884
     4.5176   8.3705   8.4401   9.0723   9.0985   9.2253   9.2296   9.2665
     9.2980   9.3501   9.3923  12.9539  13.0374  13.0397  13.0635  13.8384
    13.8635

          k = 0.5000-0.2887 0.0000 (  9510 PWs)   bands (ev):

   -40.5577 -12.1355 -11.9746 -11.9424 -11.7357 -10.7621 -10.7513 -10.5720
   -10.5256  -8.3410  -8.3135  -8.3063  -8.2586  -8.1743  -8.1332  -8.1154
    -8.0761  -7.4898  -7.3921  -6.3181  -6.2527  -4.6816  -4.6536  -4.5592
    -4.5521  -4.5460  -4.5192  -4.4186  -4.4151  -1.3066  -1.2488  -1.2120
    -1.1881  -1.1773  -1.1332  -1.0998  -1.0642  -0.9865  -0.9579  -0.9254
    -0.9128  -0.8087  -0.6486   0.3763   0.4272   0.4342   0.4505   0.4562
     0.4881   0.6922   0.7744   0.8374   1.0473   1.4097   1.4432   1.4971
     1.5274   2.2992   2.3830   2.5752   2.5969   2.6532   2.6893   3.4185
     3.5075   3.6369   3.6588   4.1051   4.6040   4.6792   4.7504   4.8335
     4.8590   8.2959   8.7732   8.8351   8.9743   9.0082   9.0293   9.5281
     9.6006   9.6442   9.6827  11.6851  11.7012  12.8076  12.8192  12.9992
    13.2383

          k =-0.5000-0.2887 0.0000 (  9510 PWs)   bands (ev):

   -40.5577 -12.1354 -11.9747 -11.9423 -11.7358 -10.7620 -10.7514 -10.5719
   -10.5257  -8.3408  -8.3137  -8.3069  -8.2583  -8.1741  -8.1328  -8.1159
    -8.0759  -7.4894  -7.3925  -6.3184  -6.2519  -4.6817  -4.6535  -4.5598
    -4.5531  -4.5457  -4.5179  -4.4192  -4.4148  -1.3065  -1.2487  -1.2131
    -1.1877  -1.1774  -1.1325  -1.1007  -1.0636  -0.9867  -0.9576  -0.9262
    -0.9128  -0.8087  -0.6484   0.3764   0.4271   0.4341   0.4511   0.4575
     0.4878   0.6918   0.7736   0.8375   1.0474   1.4099   1.4436   1.4970
     1.5275   2.2997   2.3825   2.5748   2.5965   2.6531   2.6896   3.4211
     3.5045   3.6368   3.6596   4.1071   4.5998   4.6833   4.7497   4.8333
     4.8588   8.2914   8.7759   8.8324   8.9744   9.0070   9.0309   9.5288
     9.6007   9.6485   9.6819  11.6848  11.7008  12.8028  12.8211  13.0074
    13.2355

          k = 0.5000-0.2887-0.5393 (  9508 PWs)   bands (ev):

   -40.5577 -12.0653 -12.0165 -11.8707 -11.8461 -10.6824 -10.6614 -10.6561
   -10.6210  -8.2851  -8.2746  -8.2407  -8.2147  -8.1981  -8.1910  -8.1807
    -8.1453  -7.4520  -7.4247  -6.3047  -6.2776  -4.6299  -4.6293  -4.6039
    -4.5740  -4.5136  -4.4796  -4.4667  -4.4560  -1.2807  -1.2365  -1.2228
    -1.2020  -1.1804  -1.1102  -1.1023  -1.0979  -0.9776  -0.9373  -0.9350
    -0.9332  -0.1716  -0.0684   0.0912   0.1473   0.3890   0.4355   0.4386
     0.4459   0.4520   0.4810   1.4185   1.4443   1.4504   1.4692   1.4919
     1.5242   1.5420   1.5670   2.5796   2.5989   2.6489   2.6857   3.8833
     3.9983   4.0215   4.1379   4.1647   4.2215   4.2313   4.2714   4.4887
     4.5176   8.3712   8.4321   9.0693   9.1035   9.2255   9.2317   9.2646
     9.3048   9.3506   9.3898  12.9614  13.0295  13.0349  13.0646  13.8331
    13.8619

          k =-0.5000-0.2887-0.5393 (  9508 PWs)   bands (ev):

   -40.5577 -12.0653 -12.0165 -11.8708 -11.8462 -10.6823 -10.6615 -10.6560
   -10.6211  -8.2857  -8.2744  -8.2406  -8.2149  -8.1977  -8.1910  -8.1806
    -8.1453  -7.4519  -7.4249  -6.3046  -6.2773  -4.6298  -4.6294  -4.6039
    -4.5745  -4.5136  -4.4785  -4.4667  -4.4567  -1.2807  -1.2373  -1.2227
    -1.2019  -1.1804  -1.1112  -1.1012  -1.0978  -0.9777  -0.9373  -0.9352
    -0.9337  -0.1714  -0.0684   0.0913   0.1475   0.3890   0.4357   0.4387
     0.4458   0.4528   0.4807   1.4187   1.4442   1.4506   1.4693   1.4922
     1.5240   1.5422   1.5663   2.5796   2.5981   2.6489   2.6860   3.8840
     4.0012   4.0171   4.1379   4.1667   4.2216   4.2310   4.2711   4.4890
     4.5176   8.3715   8.4281   9.0684   9.1050   9.2264   9.2317   9.2645
     9.3081   9.3506   9.3886  12.9648  13.0271  13.0307  13.0657  13.8298
    13.8611

     the Fermi energy is     7.1339 ev

!    total energy              =    -692.75419469 Ry
     Harris-Foulkes estimate   =    -692.75419436 Ry
     estimated scf accuracy    <       0.00000016 Ry

     total all-electron energy =     -2772.799197 Ry

     The total energy is the sum of the following terms:

     one-electron contribution =    -111.49808973 Ry
     hartree contribution      =     130.93180590 Ry
     xc contribution           =    -175.94274184 Ry
     ewald contribution        =    -305.23259260 Ry
     one-center paw contrib.   =    -230.83937478 Ry
     smearing contrib. (-TS)   =      -0.17320164 Ry

     convergence has been achieved in   9 iterations

     Forces acting on atoms (cartesian axes, Ry/au):

     atom    1 type  1   force =     0.00118681   -0.00099615    0.00010316
     atom    2 type  1   force =    -0.00527793   -0.00313142   -0.00025642
     atom    3 type  1   force =     0.00166024   -0.00093383    0.00037414
     atom    4 type  1   force =    -0.00003797   -0.00887023   -0.00079222
     atom    5 type  1   force =    -0.00226417   -0.00128600   -0.00069695
     atom    6 type  1   force =    -0.00509767   -0.00263844   -0.00031704
     atom    7 type  1   force =    -0.00780713   -0.00460410   -0.00100283
     atom    8 type  1   force =    -0.00925592   -0.00496522    0.00750463
     atom    9 type  1   force =    -0.00008424    0.00155848    0.00013715
     atom   10 type  1   force =    -0.00000226   -0.00001593   -0.00037673
     atom   11 type  1   force =     0.00001553    0.00195878    0.00038064
     atom   12 type  1   force =    -0.00729051    0.00405207   -0.00091911
     atom   13 type  1   force =    -0.00118476   -0.00089629    0.00007752
     atom   14 type  1   force =     0.00540994   -0.00305845   -0.00020771
     atom   15 type  1   force =    -0.00162255   -0.00092915    0.00037120
     atom   16 type  1   force =     0.00172645    0.00101923    0.00044388
     atom   17 type  1   force =     0.00008707   -0.01366610   -0.00732452
     atom   18 type  1   force =     0.00141092    0.00414738   -0.12553893
     atom   19 type  1   force =     0.00021080   -0.01103923    0.00868151
     atom   20 type  1   force =     0.00877728   -0.00454803    0.00659721
     atom   21 type  1   force =    -0.01084496    0.00646389   -0.00541517
     atom   22 type  1   force =     0.00013201    0.00590523   -0.00015160
     atom   23 type  1   force =    -0.00821936    0.00540960    0.00681105
     atom   24 type  1   force =     0.00012677    0.00881898    0.00513096
     atom   25 type  1   force =    -0.00001901    0.00202551   -0.00060555
     atom   26 type  1   force =    -0.00002118   -0.00003670    0.00047820
     atom   27 type  1   force =    -0.00005141    0.00831017   -0.00117965
     atom   28 type  1   force =    -0.00172139    0.00101865    0.00043732
     atom   29 type  1   force =     0.00208503   -0.00120568   -0.00066437
     atom   30 type  1   force =     0.00494652   -0.00260985   -0.00029315
     atom   31 type  1   force =     0.00757259   -0.00452811   -0.00106916
     atom   32 type  1   force =     0.00000235   -0.00196936    0.00042252
     atom   33 type  1   force =     0.01052576    0.00618429   -0.00467271
     atom   34 type  1   force =    -0.00005250    0.00568313   -0.00017821
     atom   35 type  1   force =     0.00789451    0.00498341    0.00608426
     atom   36 type  1   force =     0.00704594    0.00395479   -0.00097115
     atom   37 type  2   force =     0.00003837    0.00043466    0.10859783

     Total force =     0.172498     Total SCF correction =     0.000634

     BFGS Geometry Optimization

     number of scf cycles    =   1
     number of bfgs steps    =   0

     energy   new            =    -692.7541946879 Ry

     new trust radius        =       0.1256153404 bohr
     new conv_thr            =       0.0000010000 Ry


ATOMIC_POSITIONS (angstrom)
C        0.000628033  -0.000527140   0.000054592
C       -0.002792958   1.427950192  -0.000135692
C        0.000878560  -0.000494159   3.443446695
C        1.238056119   0.710109710   3.442829482
C       -1.239274354   2.143730374  -0.000368811
C       -1.240773778   3.572621961  -0.000167773
C       -1.242207566   2.141974513   3.442718033
C       -0.004898021   2.856587050   3.447219987
C       -2.476196994   4.289646506   0.000072576
C       -2.476153614   5.718420628  -0.000199357
C       -2.476144200   4.289858335   3.443450132
C       -1.241934179   5.005769690   3.442762337
C        2.475525471  -0.000474295   0.000041022
C        2.479015236   1.427988803  -0.000109917
C        2.475293804  -0.000491682   3.443445140
C        3.715142223   0.715342989   3.443483598
C        1.238122286   2.137179109  -0.003875967
C        1.238822836   3.576212860  -0.066432339
C        1.238187760   2.138569187   3.447842767
C        2.480797157   2.856807815   3.446739799
C       -0.005738904   4.292242337  -0.002865583
C        0.000069856   5.721553973  -0.000080221
C       -0.004349498   4.291684433   3.446852960
C        1.238143293   5.008292228   3.445963895
C        4.952294775   0.001071855  -0.000320445
C        4.952293628   1.429587847   0.000253050
C        4.952277632   0.004397553   3.442624461
C        6.189470126   0.715342678   3.443480124
C        3.715331976   2.143772878  -0.000351568
C        3.716846214   3.572637088  -0.000155131
C        3.718235870   2.142014726   3.442682934
C        4.952306082   2.858172387   3.443472292
C        2.481722410   4.292094382  -0.002472693
C        2.476124634   5.721436444  -0.000094305
C        2.480330015   4.291458903   3.446468359
C        3.717957179   5.005718211   3.442734799
Li       1.219676531   3.519886241   1.777123722



     Writing output data file Li_CNT.save/
     NEW-OLD atomic charge density approx. for the potential

     Check: negative core charge=   -0.000003

     total cpu time spent up to now is       76.8 secs

     Self-consistent Calculation

     iteration #  1     ecut=    40.00 Ry     beta= 0.40
     Davidson diagonalization with overlap
     ethr =  1.00E-06,  avg # of iterations = 11.2

     total cpu time spent up to now is       94.1 secs

     total energy              =    -692.77324392 Ry
     Harris-Foulkes estimate   =    -692.77261904 Ry
     estimated scf accuracy    <       0.00476098 Ry

     iteration #  2     ecut=    40.00 Ry     beta= 0.40
     Davidson diagonalization with overlap
     ethr =  3.24E-06,  avg # of iterations =  2.9

     total cpu time spent up to now is      102.4 secs

     total energy              =    -692.77381324 Ry
     Harris-Foulkes estimate   =    -692.77411167 Ry
     estimated scf accuracy    <       0.00090684 Ry

     iteration #  3     ecut=    40.00 Ry     beta= 0.40
     Davidson diagonalization with overlap
     ethr =  6.17E-07,  avg # of iterations =  2.8

     total cpu time spent up to now is      109.7 secs

     total energy              =    -692.77395060 Ry
     Harris-Foulkes estimate   =    -692.77398893 Ry
     estimated scf accuracy    <       0.00022520 Ry

     iteration #  4     ecut=    40.00 Ry     beta= 0.40
     Davidson diagonalization with overlap
     ethr =  1.53E-07,  avg # of iterations =  3.0

     total cpu time spent up to now is      118.1 secs

     total energy              =    -692.77398708 Ry
     Harris-Foulkes estimate   =    -692.77398080 Ry
     estimated scf accuracy    <       0.00001918 Ry

     iteration #  5     ecut=    40.00 Ry     beta= 0.40
     Davidson diagonalization with overlap
     ethr =  1.30E-08,  avg # of iterations =  2.2

     total cpu time spent up to now is      125.6 secs

     total energy              =    -692.77399149 Ry
     Harris-Foulkes estimate   =    -692.77398897 Ry
     estimated scf accuracy    <       0.00000289 Ry

     iteration #  6     ecut=    40.00 Ry     beta= 0.40
     Davidson diagonalization with overlap
     ethr =  1.97E-09,  avg # of iterations =  2.4

     total cpu time spent up to now is      133.7 secs

     End of self-consistent calculation

          k = 0.0000 0.0000 0.0000 (  9489 PWs)   bands (ev):

   -40.5328 -12.7013 -12.4691 -10.2582 -10.1800 -10.1793 -10.1111 -10.0534
   -10.0529 -10.0410  -9.9449  -9.9443  -9.8465  -9.8457  -9.8274  -5.8760
    -5.8752  -5.7919  -5.7908  -5.7726  -5.7270  -5.6850  -5.6840  -3.6307
    -3.5410  -3.5188  -3.5169  -2.8560  -2.8557  -2.8437  -2.8421  -2.8337
    -2.8052  -2.7327  -2.7282  -2.7271  -2.7052  -2.7048  -2.6917  -1.5076
     0.1424   0.9632   0.9633   0.9874   1.0437   1.0485   1.0518   1.0544
     1.0589   1.0803   1.1205   1.1214   1.1239   1.3711   1.3773   1.4338
     1.6465   1.6481   1.6751   2.6467   2.9413   2.9453   3.1269   3.1283
     3.1481   3.7020   3.7026   3.7543   3.7634   6.1460   6.1622   6.6958
     6.7082   6.7238   6.8462   7.3950   7.4026  10.8439  11.1804  11.1888
    11.2342  11.2404  11.2481  11.4091  11.9036  12.0754  12.0783  12.0896
    12.0937

          k = 0.0000 0.0000-0.5393 (  9506 PWs)   bands (ev):

   -40.5328 -12.6185 -12.5583 -10.2313 -10.1399 -10.1098 -10.1096 -10.0211
   -10.0198  -9.9687  -9.9606  -9.9601  -9.9430  -9.9412  -9.9051  -5.8425
    -5.8420  -5.7725  -5.7667  -5.7665  -5.7454  -5.7438  -5.7258  -3.6325
    -3.5444  -3.5225  -3.5205  -2.8207  -2.8201  -2.8163  -2.8156  -2.8050
    -2.7824  -2.7714  -2.7648  -2.7537  -2.7333  -2.7326  -2.7196  -0.7867
    -0.7276   0.9736   0.9739   0.9939   1.0431   1.0535   1.0546   1.0558
     1.0561   1.0840   1.1142   1.1152   1.1156   1.8618   1.9794   1.9817
     2.1332   2.1909   2.2003   2.3191   2.3231   2.3261   2.3419   2.3441
     2.3910   3.7025   3.7030   3.7524   3.7617   6.6303   6.6376   6.7358
     6.7690   6.7708   6.7932   6.7994   6.8707  11.3295  11.4515  11.4648
    11.4777  11.4832  11.5480  11.7024  11.7031  11.7339  11.7408  11.7686
    11.7802

          k = 0.0000-0.5774 0.0000 (  9510 PWs)   bands (ev):

   -40.5328 -12.1125 -11.9890 -11.9024 -11.7475 -10.7639 -10.7508 -10.5648
   -10.5222  -8.3406  -8.2989  -8.2968  -8.2685  -8.1609  -8.1187  -8.1093
    -8.0807  -7.4996  -7.3901  -6.3219  -6.2399  -4.6641  -4.6390  -4.5685
    -4.5501  -4.5182  -4.5112  -4.4313  -4.4284  -1.3093  -1.2294  -1.1867
    -1.1618  -1.1508  -1.1439  -1.0861  -1.0703  -0.9965  -0.9676  -0.9228
    -0.9148  -0.7937  -0.6604   0.3704   0.4240   0.4255   0.4663   0.4852
     0.4948   0.7385   0.7739   0.8344   1.0344   1.4035   1.4538   1.4938
     1.5427   2.3079   2.3793   2.5706   2.6252   2.6471   2.6833   3.4138
     3.5149   3.6440   3.6497   4.0952   4.6240   4.6884   4.7536   4.8251
     4.8469   8.3021   8.7838   8.8464   8.9817   8.9962   9.0295   9.5445
     9.6122   9.6338   9.6772  11.6736  11.6988  12.8121  12.8355  12.9854
    13.2215

          k = 0.0000-0.5774-0.5393 (  9508 PWs)   bands (ev):

   -40.5328 -12.0490 -11.9704 -11.8938 -11.8491 -10.6960 -10.6672 -10.6369
   -10.6114  -8.2925  -8.2469  -8.2350  -8.2124  -8.2016  -8.1851  -8.1706
    -8.1421  -7.4694  -7.4151  -6.3155  -6.2578  -4.6267  -4.6175  -4.5579
    -4.5411  -4.5367  -4.4939  -4.4796  -4.4648  -1.2968  -1.2079  -1.1781
    -1.1741  -1.1699  -1.1227  -1.0963  -1.0951  -0.9890  -0.9547  -0.9299
    -0.9264  -0.1528  -0.0375   0.0758   0.1396   0.3780   0.4307   0.4334
     0.4566   0.4832   0.4907   1.4103   1.4410   1.4653   1.4761   1.4798
     1.5337   1.5509   1.5701   2.5733   2.6333   2.6360   2.6794   3.8764
     4.0166   4.0442   4.1487   4.1665   4.2030   4.2306   4.2732   4.4672
     4.5173   8.3806   8.4388   9.0883   9.1162   9.1974   9.2463   9.2763
     9.3088   9.3404   9.3978  12.9690  13.0310  13.0342  13.0797  13.8261
    13.8509

          k = 0.5000-0.2887 0.0000 (  9510 PWs)   bands (ev):

   -40.5328 -12.1125 -11.9890 -11.9025 -11.7475 -10.7638 -10.7509 -10.5647
   -10.5223  -8.3404  -8.2993  -8.2970  -8.2682  -8.1611  -8.1183  -8.1090
    -8.0811  -7.4988  -7.3901  -6.3230  -6.2414  -4.6632  -4.6393  -4.5689
    -4.5500  -4.5161  -4.5112  -4.4318  -4.4278  -1.3093  -1.2288  -1.1870
    -1.1655  -1.1499  -1.1422  -1.0870  -1.0703  -0.9964  -0.9669  -0.9200
    -0.9139  -0.7937  -0.6599   0.3702   0.4234   0.4258   0.4681   0.4818
     0.4925   0.7379   0.7728   0.8344   1.0347   1.4037   1.4494   1.4914
     1.5424   2.3084   2.3787   2.5708   2.6275   2.6525   2.6835   3.4182
     3.5099   3.6434   3.6515   4.0997   4.6191   4.6916   4.7533   4.8245
     4.8474   8.2928   8.7772   8.8511   8.9837   8.9939   9.0328   9.5448
     9.6121   9.6417   9.6759  11.6727  11.6984  12.8173  12.8247  12.9986
    13.2211

          k =-0.5000-0.2887 0.0000 (  9510 PWs)   bands (ev):

   -40.5328 -12.1125 -11.9889 -11.9025 -11.7475 -10.7639 -10.7508 -10.5647
   -10.5221  -8.3405  -8.2994  -8.2972  -8.2678  -8.1613  -8.1184  -8.1087
    -8.0813  -7.4983  -7.3902  -6.3236  -6.2421  -4.6629  -4.6393  -4.5689
    -4.5500  -4.5148  -4.5114  -4.4320  -4.4275  -1.3093  -1.2284  -1.1874
    -1.1671  -1.1498  -1.1413  -1.0873  -1.0703  -0.9961  -0.9664  -0.9186
    -0.9134  -0.7937  -0.6597   0.3703   0.4228   0.4258   0.4694   0.4796
     0.4915   0.7379   0.7720   0.8342   1.0348   1.4033   1.4473   1.4905
     1.5423   2.3085   2.3786   2.5713   2.6282   2.6554   2.6835   3.4204
     3.5070   3.6435   3.6523   4.1021   4.6166   4.6935   4.7528   4.8244
     4.8475   8.2876   8.7782   8.8491   8.9850   8.9926   9.0345   9.5445
     9.6124   9.6461   9.6751  11.6722  11.6981  12.8153  12.8242  13.0059
    13.2208

          k = 0.5000-0.2887-0.5393 (  9508 PWs)   bands (ev):

   -40.5328 -12.0490 -11.9705 -11.8939 -11.8491 -10.6959 -10.6673 -10.6369
   -10.6113  -8.2922  -8.2479  -8.2347  -8.2130  -8.2017  -8.1839  -8.1698
    -8.1431  -7.4693  -7.4143  -6.3154  -6.2606  -4.6267  -4.6175  -4.5551
    -4.5418  -4.5368  -4.4938  -4.4787  -4.4654  -1.2966  -1.2081  -1.1802
    -1.1768  -1.1661  -1.1228  -1.0976  -1.0946  -0.9890  -0.9547  -0.9269
    -0.9248  -0.1528  -0.0375   0.0759   0.1402   0.3778   0.4307   0.4335
     0.4589   0.4786   0.4885   1.4104   1.4402   1.4585   1.4764   1.4805
     1.5334   1.5507   1.5684   2.5733   2.6347   2.6425   2.6797   3.8793
     4.0116   4.0452   4.1462   4.1744   4.2019   4.2303   4.2720   4.4675
     4.5185   8.3819   8.4270   9.0865   9.1204   9.1969   9.2520   9.2749
     9.3115   9.3414   9.3959  12.9741  13.0286  13.0315  13.0790  13.8241
    13.8491

          k =-0.5000-0.2887-0.5393 (  9508 PWs)   bands (ev):

   -40.5328 -12.0490 -11.9705 -11.8938 -11.8491 -10.6959 -10.6673 -10.6369
   -10.6112  -8.2923  -8.2478  -8.2351  -8.2134  -8.2014  -8.1831  -8.1696
    -8.1436  -7.4692  -7.4140  -6.3155  -6.2618  -4.6266  -4.6175  -4.5536
    -4.5421  -4.5367  -4.4938  -4.4782  -4.4657  -1.2966  -1.2081  -1.1824
    -1.1760  -1.1653  -1.1228  -1.0977  -1.0949  -0.9888  -0.9546  -0.9256
    -0.9240  -0.1527  -0.0375   0.0760   0.1405   0.3779   0.4305   0.4334
     0.4603   0.4761   0.4875   1.4101   1.4399   1.4553   1.4757   1.4815
     1.5333   1.5505   1.5677   2.5738   2.6349   2.6461   2.6798   3.8801
     4.0123   4.0430   4.1465   4.1765   4.2019   4.2301   4.2714   4.4677
     4.5190   8.3824   8.4209   9.0859   9.1219   9.1981   9.2531   9.2749
     9.3132   9.3417   9.3951  12.9766  13.0276  13.0298  13.0788  13.8220
    13.8480

     the Fermi energy is     7.1363 ev

!    total energy              =    -692.77399206 Ry
     Harris-Foulkes estimate   =    -692.77399180 Ry
     estimated scf accuracy    <       0.00000029 Ry

     total all-electron energy =     -2772.818995 Ry

     The total energy is the sum of the following terms:

     one-electron contribution =    -110.72110449 Ry
     hartree contribution      =     130.55370856 Ry
     xc contribution           =    -175.92401300 Ry
     ewald contribution        =    -305.67089686 Ry
     one-center paw contrib.   =    -230.83874997 Ry
     smearing contrib. (-TS)   =      -0.17293631 Ry

     convergence has been achieved in   6 iterations

     Forces acting on atoms (cartesian axes, Ry/au):

     atom    1 type  1   force =    -0.00165479    0.00069588    0.00217213
     atom    2 type  1   force =     0.00007664   -0.00300171   -0.00019756
     atom    3 type  1   force =    -0.00139197    0.00033360    0.00001350
     atom    4 type  1   force =     0.00009914   -0.00241449    0.00009662
     atom    5 type  1   force =    -0.00159680   -0.00067341   -0.00125940
     atom    6 type  1   force =    -0.00247885    0.00121783   -0.00001712
     atom    7 type  1   force =    -0.00189875   -0.00089107   -0.00013761
     atom    8 type  1   force =    -0.00147279   -0.00132926    0.00870600
     atom    9 type  1   force =    -0.00007153   -0.00165683    0.00216371
     atom   10 type  1   force =     0.00004013    0.00008736   -0.00079876
     atom   11 type  1   force =    -0.00012599   -0.00153594    0.00005762
     atom   12 type  1   force =    -0.00159481    0.00124654   -0.00023280
     atom   13 type  1   force =     0.00165587    0.00077664    0.00216737
     atom   14 type  1   force =    -0.00015314   -0.00316977   -0.00013717
     atom   15 type  1   force =     0.00125726    0.00040081   -0.00001131
     atom   16 type  1   force =    -0.00111673   -0.00094901    0.00004386
     atom   17 type  1   force =     0.00027714    0.00559471   -0.01694506
     atom   18 type  1   force =    -0.00098071   -0.00292686   -0.04213489
     atom   19 type  1   force =    -0.00023873   -0.00171764    0.00944247
     atom   20 type  1   force =     0.00142612   -0.00148883    0.00777373
     atom   21 type  1   force =     0.00313117   -0.00082114   -0.01603613
     atom   22 type  1   force =    -0.00286235    0.00155421    0.00018492
     atom   23 type  1   force =    -0.00178696    0.00028588    0.00753416
     atom   24 type  1   force =    -0.00016382    0.00201523    0.00617452
     atom   25 type  1   force =     0.00011160    0.00174082   -0.00119028
     atom   26 type  1   force =    -0.00004431   -0.00011513   -0.00004045
     atom   27 type  1   force =     0.00007815    0.00156164   -0.00056605
     atom   28 type  1   force =     0.00099197   -0.00103897    0.00002079
     atom   29 type  1   force =     0.00166310   -0.00058250   -0.00123458
     atom   30 type  1   force =     0.00257726    0.00119763    0.00011521
     atom   31 type  1   force =     0.00175417   -0.00071821   -0.00030383
     atom   32 type  1   force =    -0.00014013    0.00124345   -0.00003547
     atom   33 type  1   force =    -0.00195775   -0.00046576   -0.01567307
     atom   34 type  1   force =     0.00270944    0.00163384    0.00025618
     atom   35 type  1   force =     0.00163848    0.00047344    0.00674349
     atom   36 type  1   force =     0.00151820    0.00108794   -0.00036000
     atom   37 type  2   force =     0.00072505    0.00234909    0.04364524

     Total force =     0.071054     Total SCF correction =     0.000620

     number of scf cycles    =   2
     number of bfgs steps    =   1

     energy   old            =    -692.7541946879 Ry
     energy   new            =    -692.7739920579 Ry

     CASE: energy  _new < energy  _old

     new trust radius        =       0.0788641103 bohr
     new conv_thr            =       0.0000000436 Ry


ATOMIC_POSITIONS (angstrom)
C       -0.000681828  -0.000001662   0.001858671
C       -0.002998653   1.425304679  -0.000312373
C       -0.000189506  -0.000265518   3.443476954
C        1.238136284   0.707657827   3.442869096
C       -1.240712182   2.143107114  -0.001447303
C       -1.243086566   3.573495938  -0.000198120
C       -1.244178127   2.141001788   3.442552933
C       -0.006589714   2.855233029   3.454812438
C       -2.476260524   4.288353909   0.001871410
C       -2.476120493   5.718492158  -0.000880051
C       -2.476247745   4.288686265   3.443517257
C       -1.243626694   5.007008636   3.442522675
C        2.476836333   0.000123160   0.001839846
C        2.479164308   1.425207837  -0.000234104
C        2.476252236  -0.000207145   3.443454706
C        3.714305466   0.714609056   3.443542554
C        1.238356239   2.141115345  -0.018282278
C        1.238082629   3.574000533  -0.107727852
C        1.238000807   2.136583778   3.456105132
C        2.482425791   2.855342926   3.453513933
C       -0.003698939   4.291891965  -0.016421811
C       -0.002293823   5.723142218   0.000065190
C       -0.006248508   4.292197060   3.453439605
C        1.238014089   5.010410855   3.451338890
C        4.952386224   0.002616783  -0.001337037
C        4.952255854   1.429490636   0.000243938
C        4.952339732   0.006114595   3.442095536
C        6.190203824   0.714534224   3.443519644
C        3.716815580   2.143229000  -0.001407845
C        3.719232789   3.573495793  -0.000074671
C        3.720074745   2.141189034   3.442376800
C        4.952190157   2.859101694   3.443464462
C        2.480637914   4.292024051  -0.015690391
C        2.478365737   5.723079311   0.000108762
C        2.482089498   4.292105116   3.452363155
C        3.719573782   5.006820857   3.442387147
Li       1.220278924   3.521853768   1.818806054



     Writing output data file Li_CNT.save/
     NEW-OLD atomic charge density approx. for the potential

     Check: negative core charge=   -0.000003

     total cpu time spent up to now is      139.7 secs

     Self-consistent Calculation

     iteration #  1     ecut=    40.00 Ry     beta= 0.40
     Davidson diagonalization with overlap
     ethr =  1.00E-06,  avg # of iterations =  7.1

     total cpu time spent up to now is      157.0 secs

     total energy              =    -692.77946798 Ry
     Harris-Foulkes estimate   =    -692.77851580 Ry
     estimated scf accuracy    <       0.00222503 Ry

     iteration #  2     ecut=    40.00 Ry     beta= 0.40
     Davidson diagonalization with overlap
     ethr =  1.51E-06,  avg # of iterations =  4.1

     total cpu time spent up to now is      166.0 secs

     total energy              =    -692.77973395 Ry
     Harris-Foulkes estimate   =    -692.77982482 Ry
     estimated scf accuracy    <       0.00035505 Ry

     iteration #  3     ecut=    40.00 Ry     beta= 0.40
     Davidson diagonalization with overlap
     ethr =  2.42E-07,  avg # of iterations =  2.8

     total cpu time spent up to now is      173.4 secs

     total energy              =    -692.77978349 Ry
     Harris-Foulkes estimate   =    -692.77979317 Ry
     estimated scf accuracy    <       0.00009204 Ry

     iteration #  4     ecut=    40.00 Ry     beta= 0.40
     Davidson diagonalization with overlap
     ethr =  6.26E-08,  avg # of iterations =  3.0

     total cpu time spent up to now is      180.4 secs

     total energy              =    -692.77979893 Ry
     Harris-Foulkes estimate   =    -692.77979611 Ry
     estimated scf accuracy    <       0.00001180 Ry

     iteration #  5     ecut=    40.00 Ry     beta= 0.40
     Davidson diagonalization with overlap
     ethr =  8.03E-09,  avg # of iterations =  2.0

     total cpu time spent up to now is      187.7 secs

     total energy              =    -692.77980142 Ry
     Harris-Foulkes estimate   =    -692.77980012 Ry
     estimated scf accuracy    <       0.00000169 Ry

     iteration #  6     ecut=    40.00 Ry     beta= 0.40
     Davidson diagonalization with overlap
     ethr =  1.15E-09,  avg # of iterations =  2.4

     total cpu time spent up to now is      195.8 secs

     total energy              =    -692.77980170 Ry
     Harris-Foulkes estimate   =    -692.77980159 Ry
     estimated scf accuracy    <       0.00000013 Ry

     iteration #  7     ecut=    40.00 Ry     beta= 0.40
     Davidson diagonalization with overlap
     ethr =  9.05E-11,  avg # of iterations =  2.9

     total cpu time spent up to now is      203.7 secs

     End of self-consistent calculation

          k = 0.0000 0.0000 0.0000 (  9489 PWs)   bands (ev):

   -40.5491 -12.6998 -12.4600 -10.2549 -10.1708 -10.1703 -10.0976 -10.0627
   -10.0614 -10.0465  -9.9218  -9.9208  -9.8542  -9.8525  -9.8274  -5.8774
    -5.8758  -5.7963  -5.7954  -5.7607  -5.7100  -5.6780  -5.6764  -3.6329
    -3.5460  -3.5036  -3.5009  -2.8668  -2.8631  -2.8354  -2.8341  -2.8315
    -2.8217  -2.7411  -2.7340  -2.7263  -2.6824  -2.6798  -2.6648  -1.5060
     0.1533   0.9702   0.9708   0.9953   1.0295   1.0296   1.0521   1.0611
     1.0663   1.0950   1.1204   1.1278   1.1298   1.3892   1.3945   1.4293
     1.6396   1.6417   1.6736   2.6692   2.9563   2.9588   3.1188   3.1209
     3.1471   3.6970   3.6974   3.7670   3.7788   6.1501   6.1658   6.6881
     6.7017   6.7355   6.8554   7.3972   7.4051  10.8256  11.1882  11.2045
    11.2324  11.2397  11.2530  11.4023  11.9271  12.0735  12.0770  12.0999
    12.1008

          k = 0.0000 0.0000-0.5393 (  9506 PWs)   bands (ev):

   -40.5491 -12.6229 -12.5435 -10.2276 -10.1261 -10.1097 -10.1097  -9.9903
    -9.9892  -9.9816  -9.9742  -9.9731  -9.9444  -9.9416  -9.8989  -5.8475
    -5.8473  -5.7742  -5.7741  -5.7608  -5.7308  -5.7289  -5.7088  -3.6348
    -3.5494  -3.5072  -3.5045  -2.8354  -2.8353  -2.8109  -2.8099  -2.8088
    -2.7944  -2.7715  -2.7694  -2.7595  -2.7057  -2.7034  -2.6859  -0.7915
    -0.7142   0.9793   0.9794   1.0004   1.0344   1.0346   1.0546   1.0642
     1.0764   1.0900   1.1116   1.1236   1.1258   1.8583   1.9844   1.9855
     2.1530   2.2118   2.2197   2.3110   2.3163   2.3191   2.3366   2.3404
     2.3959   3.6972   3.6975   3.7650   3.7768   6.6311   6.6360   6.7525
     6.7657   6.7681   6.7934   6.8019   6.8800  11.3558  11.4486  11.4592
    11.4752  11.4815  11.5378  11.7059  11.7072  11.7455  11.7531  11.7654
    11.7932

          k = 0.0000-0.5774 0.0000 (  9510 PWs)   bands (ev):

   -40.5491 -12.1063 -11.9929 -11.8839 -11.7480 -10.7653 -10.7495 -10.5595
   -10.5149  -8.3371  -8.3020  -8.3003  -8.2648  -8.1592  -8.1043  -8.1006
    -8.0716  -7.5031  -7.3820  -6.3268  -6.2328  -4.6599  -4.6355  -4.5724
    -4.5539  -4.4987  -4.4957  -4.4301  -4.4255  -1.3149  -1.2236  -1.1871
    -1.1515  -1.1451  -1.1277  -1.0839  -1.0667  -0.9968  -0.9776  -0.9054
    -0.9025  -0.7866  -0.6606   0.3642   0.4178   0.4253   0.4783   0.4895
     0.5020   0.7591   0.7794   0.8327   1.0324   1.3921   1.4588   1.5060
     1.5396   2.3126   2.3780   2.5764   2.6174   2.6574   2.7075   3.4205
     3.5163   3.6399   3.6531   4.0954   4.6402   4.6961   4.7520   4.8302
     4.8410   8.2965   8.7809   8.8517   8.9890   8.9959   9.0347   9.5611
     9.6119   9.6345   9.6817  11.6573  11.6927  12.8144  12.8507  12.9771
    13.2084

          k = 0.0000-0.5774-0.5393 (  9508 PWs)   bands (ev):

   -40.5491 -12.0477 -11.9474 -11.9042 -11.8431 -10.7023 -10.6735 -10.6268
   -10.5963  -8.2945  -8.2498  -8.2448  -8.2115  -8.2059  -8.1694  -8.1472
    -8.1289  -7.4774  -7.4024  -6.3220  -6.2492  -4.6293  -4.6158  -4.5445
    -4.5314  -4.5211  -4.5097  -4.4720  -4.4552  -1.3048  -1.2073  -1.1781
    -1.1541  -1.1448  -1.1323  -1.0933  -1.0866  -0.9911  -0.9697  -0.9099
    -0.9079  -0.1554  -0.0149   0.0699   0.1418   0.3702   0.4244   0.4311
     0.4739   0.4884   0.4985   1.3963   1.4399   1.4657   1.4806   1.4866
     1.5315   1.5602   1.5769   2.5782   2.6193   2.6499   2.7050   3.8752
     4.0096   4.0528   4.1649   4.1867   4.1975   4.2302   4.2767   4.4605
     4.5189   8.3806   8.4337   9.0960   9.1278   9.1914   9.2548   9.2715
     9.3204   9.3369   9.4087  12.9762  13.0238  13.0334  13.0912  13.7687
    13.8335

          k = 0.5000-0.2887 0.0000 (  9510 PWs)   bands (ev):

   -40.5491 -12.1063 -11.9928 -11.8840 -11.7480 -10.7655 -10.7494 -10.5598
   -10.5145  -8.3367  -8.3038  -8.3008  -8.2634  -8.1606  -8.1064  -8.0992
    -8.0690  -7.5028  -7.3840  -6.3268  -6.2283  -4.6604  -4.6357  -4.5728
    -4.5543  -4.5019  -4.4947  -4.4295  -4.4261  -1.3147  -1.2235  -1.1871
    -1.1513  -1.1466  -1.1269  -1.0834  -1.0654  -0.9970  -0.9778  -0.9081
    -0.9063  -0.7869  -0.6602   0.3639   0.4179   0.4252   0.4760   0.4959
     0.5054   0.7587   0.7789   0.8328   1.0326   1.3924   1.4619   1.5107
     1.5402   2.3135   2.3782   2.5764   2.6165   2.6488   2.7070   3.4245
     3.5107   3.6382   3.6561   4.0977   4.6298   4.7035   4.7516   4.8311
     4.8407   8.2930   8.7834   8.8543   8.9854   8.9937   9.0376   9.5632
     9.6112   9.6398   9.6796  11.6566  11.6925  12.8184  12.8405  12.9847
    13.2098

          k =-0.5000-0.2887 0.0000 (  9510 PWs)   bands (ev):

   -40.5491 -12.1063 -11.9928 -11.8840 -11.7479 -10.7656 -10.7493 -10.5600
   -10.5144  -8.3368  -8.3041  -8.3015  -8.2625  -8.1615  -8.1074  -8.0984
    -8.0677  -7.5027  -7.3850  -6.3267  -6.2262  -4.6608  -4.6358  -4.5729
    -4.5544  -4.5021  -4.4957  -4.4292  -4.4265  -1.3146  -1.2234  -1.1872
    -1.1512  -1.1470  -1.1269  -1.0829  -1.0649  -0.9973  -0.9780  -0.9093
    -0.9081  -0.7870  -0.6600   0.3639   0.4180   0.4252   0.4748   0.4989
     0.5069   0.7587   0.7782   0.8329   1.0328   1.3926   1.4633   1.5131
     1.5405   2.3140   2.3782   2.5759   2.6160   2.6447   2.7069   3.4270
     3.5075   3.6376   3.6574   4.0989   4.6247   4.7077   4.7505   4.8316
     4.8404   8.2909   8.7870   8.8527   8.9849   8.9913   9.0393   9.5642
     9.6116   9.6421   9.6785  11.6561  11.6923  12.8203  12.8354  12.9893
    13.2102

          k = 0.5000-0.2887-0.5393 (  9508 PWs)   bands (ev):

   -40.5491 -12.0477 -11.9474 -11.9042 -11.8430 -10.7022 -10.6736 -10.6273
   -10.5958  -8.2941  -8.2514  -8.2441  -8.2135  -8.2062  -8.1716  -8.1452
    -8.1257  -7.4773  -7.4041  -6.3219  -6.2448  -4.6293  -4.6158  -4.5445
    -4.5348  -4.5216  -4.5097  -4.4710  -4.4560  -1.3046  -1.2075  -1.1783
    -1.1559  -1.1433  -1.1324  -1.0932  -1.0846  -0.9911  -0.9697  -0.9130
    -0.9119  -0.1556  -0.0151   0.0698   0.1425   0.3701   0.4245   0.4312
     0.4709   0.4947   0.5024   1.3964   1.4396   1.4669   1.4803   1.4952
     1.5317   1.5607   1.5760   2.5784   2.6190   2.6405   2.7044   3.8767
     4.0074   4.0503   4.1619   4.1930   4.1964   4.2300   4.2781   4.4606
     4.5177   8.3884   8.4279   9.0942   9.1289   9.1897   9.2579   9.2711
     9.3211   9.3396   9.4056  12.9765  13.0236  13.0316  13.0861  13.7684
    13.8310

          k =-0.5000-0.2887-0.5393 (  9508 PWs)   bands (ev):

   -40.5491 -12.0478 -11.9474 -11.9042 -11.8430 -10.7023 -10.6735 -10.6276
   -10.5956  -8.2943  -8.2512  -8.2445  -8.2144  -8.2061  -8.1728  -8.1442
    -8.1241  -7.4774  -7.4049  -6.3217  -6.2427  -4.6294  -4.6159  -4.5445
    -4.5358  -4.5224  -4.5097  -4.4705  -4.4564  -1.3046  -1.2074  -1.1784
    -1.1556  -1.1438  -1.1323  -1.0927  -1.0841  -0.9912  -0.9698  -0.9143
    -0.9138  -0.1558  -0.0152   0.0699   0.1428   0.3701   0.4246   0.4312
     0.4695   0.4978   0.5041   1.3966   1.4396   1.4668   1.4806   1.4994
     1.5316   1.5610   1.5756   2.5780   2.6191   2.6358   2.7043   3.8773
     4.0074   4.0483   4.1609   4.1949   4.1966   4.2297   4.2788   4.4607
     4.5171   8.3923   8.4247   9.0935   9.1279   9.1901   9.2604   9.2705
     9.3212   9.3409   9.4041  12.9766  13.0233  13.0305  13.0840  13.7675
    13.8291

     the Fermi energy is     7.1389 ev

!    total energy              =    -692.77980175 Ry
     Harris-Foulkes estimate   =    -692.77980172 Ry
     estimated scf accuracy    <       0.00000002 Ry

     total all-electron energy =     -2772.824805 Ry

     The total energy is the sum of the following terms:

     one-electron contribution =    -110.20824695 Ry
     hartree contribution      =     130.30806120 Ry
     xc contribution           =    -175.91210515 Ry
     ewald contribution        =    -305.95615621 Ry
     one-center paw contrib.   =    -230.83847212 Ry
     smearing contrib. (-TS)   =      -0.17288251 Ry

     convergence has been achieved in   7 iterations

     Forces acting on atoms (cartesian axes, Ry/au):

     atom    1 type  1   force =     0.00492415   -0.00153705    0.00275535
     atom    2 type  1   force =     0.00017594    0.00689325   -0.00219840
     atom    3 type  1   force =     0.00224510   -0.00115627   -0.00024338
     atom    4 type  1   force =    -0.00032851    0.00190793    0.00116950
     atom    5 type  1   force =     0.00205536    0.00042630   -0.00087849
     atom    6 type  1   force =     0.00552101   -0.00204372   -0.00193444
     atom    7 type  1   force =     0.00152028    0.00015807    0.00096696
     atom    8 type  1   force =    -0.00032548   -0.00004799    0.00883539
     atom    9 type  1   force =     0.00038769    0.00464309    0.00275102
     atom   10 type  1   force =    -0.00014026   -0.00036325    0.00001397
     atom   11 type  1   force =     0.00004467    0.00291584   -0.00018981
     atom   12 type  1   force =     0.00129018   -0.00186820    0.00059864
     atom   13 type  1   force =    -0.00486347   -0.00194800    0.00275499
     atom   14 type  1   force =     0.00032079    0.00724860   -0.00216254
     atom   15 type  1   force =    -0.00203603   -0.00108680   -0.00027953
     atom   16 type  1   force =     0.00233329    0.00148346   -0.00030001
     atom   17 type  1   force =    -0.00055546   -0.00732440   -0.01608999
     atom   18 type  1   force =     0.00129578    0.00379796   -0.00674707
     atom   19 type  1   force =     0.00012434   -0.00098060    0.00911548
     atom   20 type  1   force =    -0.00018580    0.00025562    0.00806390
     atom   21 type  1   force =    -0.00390392    0.00025862   -0.01603147
     atom   22 type  1   force =     0.00624626   -0.00294676   -0.00181068
     atom   23 type  1   force =     0.00017556    0.00021226    0.00757437
     atom   24 type  1   force =     0.00000929   -0.00129591    0.00663205
     atom   25 type  1   force =    -0.00032391   -0.00146723   -0.00077481
     atom   26 type  1   force =     0.00003552    0.00006578    0.00036207
     atom   27 type  1   force =    -0.00029129   -0.00160227    0.00021938
     atom   28 type  1   force =    -0.00217792    0.00145106   -0.00032726
     atom   29 type  1   force =    -0.00206069    0.00005631   -0.00084655
     atom   30 type  1   force =    -0.00533651   -0.00203448   -0.00179214
     atom   31 type  1   force =    -0.00171232   -0.00006616    0.00068413
     atom   32 type  1   force =     0.00004877   -0.00225802   -0.00040326
     atom   33 type  1   force =     0.00203231   -0.00017874   -0.01601900
     atom   34 type  1   force =    -0.00558780   -0.00304505   -0.00170431
     atom   35 type  1   force =    -0.00046507   -0.00009618    0.00687456
     atom   36 type  1   force =    -0.00153369   -0.00162908    0.00037105
     atom   37 type  2   force =     0.00104183    0.00320197    0.01099034

     Total force =     0.043281     Total SCF correction =     0.000169

     number of scf cycles    =   3
     number of bfgs steps    =   2

     energy   old            =    -692.7739920579 Ry
     energy   new            =    -692.7798017474 Ry

     CASE: energy  _new < energy  _old

     new trust radius        =       0.0579733032 bohr
     new conv_thr            =       0.0000000161 Ry


ATOMIC_POSITIONS (angstrom)
C        0.002606380  -0.000994057   0.004821105
C       -0.003108504   1.429402796  -0.002114232
C        0.001131151  -0.001092289   3.443311643
C        1.237914880   0.707785424   3.443776000
C       -1.239820622   2.143122174  -0.002637234
C       -1.239967258   3.572216568  -0.001730136
C       -1.244105693   2.140553410   3.443203755
C       -0.007874488   2.854442136   3.465333632
C       -2.475989069   4.291441509   0.004829102
C       -2.476215112   5.718240423  -0.001185782
C       -2.476258922   4.290492240   3.443410475
C       -1.243593790   5.006226231   3.442855143
C        2.473595972  -0.001154584   0.004798883
C        2.479640126   1.429524500  -0.001982994
C        2.475046572  -0.000954492   3.443251819
C        3.715800697   0.715466745   3.443347992
C        1.238030497   2.136767760  -0.037516579
C        1.238802566   3.576091847  -0.135211252
C        1.238020058   2.134603780   3.467180078
C        2.483269360   2.854751352   3.463039301
C       -0.006146688   4.292125973  -0.035172848
C        0.001521777   5.721729554  -0.001286528
C       -0.007205084   4.292751412   3.462505180
C        1.237967049   5.010609596   3.459076131
C        4.952174033   0.002225118  -0.002415613
C        4.952265988   1.429497239   0.000536331
C        4.952138861   0.005879135   3.441994640
C        6.188783683   0.715333164   3.443294905
C        3.715935154   2.142993411  -0.002561925
C        3.716286102   3.572217618  -0.001445237
C        3.719786501   2.140633966   3.442741724
C        4.952176228   2.857699605   3.443158746
C        2.482045158   4.292034388  -0.034257952
C        2.475011122   5.721607977  -0.001134870
C        2.482748062   4.292466315   3.460550891
C        3.719309662   5.006160948   3.442492061
Li       1.221363234   3.525247718   1.849276602



     Writing output data file Li_CNT.save/
     NEW-OLD atomic charge density approx. for the potential

     Check: negative core charge=   -0.000003

     total cpu time spent up to now is      207.5 secs

     Self-consistent Calculation

     iteration #  1     ecut=    40.00 Ry     beta= 0.40
     Davidson diagonalization with overlap
     ethr =  1.00E-06,  avg # of iterations =  6.5

     total cpu time spent up to now is      223.5 secs

     total energy              =    -692.78186132 Ry
     Harris-Foulkes estimate   =    -692.78097049 Ry
     estimated scf accuracy    <       0.00195462 Ry

     iteration #  2     ecut=    40.00 Ry     beta= 0.40
     Davidson diagonalization with overlap
     ethr =  1.33E-06,  avg # of iterations =  4.8

     total cpu time spent up to now is      233.0 secs

     total energy              =    -692.78211792 Ry
     Harris-Foulkes estimate   =    -692.78216035 Ry
     estimated scf accuracy    <       0.00024519 Ry

     iteration #  3     ecut=    40.00 Ry     beta= 0.40
     Davidson diagonalization with overlap
     ethr =  1.67E-07,  avg # of iterations =  2.1

     total cpu time spent up to now is      240.1 secs

     total energy              =    -692.78214855 Ry
     Harris-Foulkes estimate   =    -692.78214655 Ry
     estimated scf accuracy    <       0.00005436 Ry

     iteration #  4     ecut=    40.00 Ry     beta= 0.40
     Davidson diagonalization with overlap
     ethr =  3.70E-08,  avg # of iterations =  2.6

     total cpu time spent up to now is      248.0 secs

     total energy              =    -692.78215638 Ry
     Harris-Foulkes estimate   =    -692.78215404 Ry
     estimated scf accuracy    <       0.00000814 Ry

     iteration #  5     ecut=    40.00 Ry     beta= 0.40
     Davidson diagonalization with overlap
     ethr =  5.54E-09,  avg # of iterations =  2.4

     total cpu time spent up to now is      255.8 secs

     total energy              =    -692.78215785 Ry
     Harris-Foulkes estimate   =    -692.78215735 Ry
     estimated scf accuracy    <       0.00000126 Ry

     iteration #  6     ecut=    40.00 Ry     beta= 0.40
     Davidson diagonalization with overlap
     ethr =  8.57E-10,  avg # of iterations =  2.4

     total cpu time spent up to now is      263.8 secs

     total energy              =    -692.78215815 Ry
     Harris-Foulkes estimate   =    -692.78215803 Ry
     estimated scf accuracy    <       0.00000013 Ry

     iteration #  7     ecut=    40.00 Ry     beta= 0.40
     Davidson diagonalization with overlap
     ethr =  9.03E-11,  avg # of iterations =  2.4

     total cpu time spent up to now is      272.3 secs

     total energy              =    -692.78215819 Ry
     Harris-Foulkes estimate   =    -692.78215817 Ry
     estimated scf accuracy    <       0.00000002 Ry

     iteration #  8     ecut=    40.00 Ry     beta= 0.40
     Davidson diagonalization with overlap
     ethr =  1.47E-11,  avg # of iterations =  2.4

     total cpu time spent up to now is      280.8 secs

     End of self-consistent calculation

          k = 0.0000 0.0000 0.0000 (  9489 PWs)   bands (ev):

   -40.5730 -12.6987 -12.4523 -10.2476 -10.1793 -10.1787 -10.0660 -10.0555
   -10.0481 -10.0480  -9.9295  -9.9289  -9.8375  -9.8365  -9.8358  -5.8796
    -5.8783  -5.7956  -5.7949  -5.7502  -5.7023  -5.6704  -5.6691  -3.6398
    -3.5468  -3.4887  -3.4870  -2.8586  -2.8575  -2.8520  -2.8429  -2.8426
    -2.7884  -2.7107  -2.7097  -2.7015  -2.6928  -2.6906  -2.6884  -1.5046
     0.1628   0.9572   0.9577   1.0011   1.0383   1.0389   1.0520   1.0659
     1.0787   1.0816   1.1228   1.1264   1.1558   1.3881   1.3933   1.4384
     1.6537   1.6545   1.6654   2.7011   2.9463   2.9506   3.1329   3.1340
     3.1376   3.6956   3.6965   3.7728   3.7899   6.1576   6.1714   6.6848
     6.6974   6.7395   6.8613   7.4033   7.4101  10.8318  11.2107  11.2156
    11.2273  11.2373  11.2443  11.4098  11.9374  12.0689  12.0718  12.1037
    12.1045

          k = 0.0000 0.0000-0.5393 (  9506 PWs)   bands (ev):

   -40.5730 -12.6257 -12.5321 -10.2229 -10.1187 -10.1184 -10.0902  -9.9956
    -9.9944  -9.9921  -9.9686  -9.9684  -9.9205  -9.9201  -9.9069  -5.8533
    -5.8529  -5.7740  -5.7736  -5.7497  -5.7201  -5.7187  -5.7003  -3.6418
    -3.5502  -3.4923  -3.4906  -2.8348  -2.8346  -2.8299  -2.8184  -2.8180
    -2.7593  -2.7383  -2.7366  -2.7284  -2.7165  -2.7155  -2.7140  -0.7983
    -0.6999   0.9649   0.9654   1.0071   1.0443   1.0449   1.0635   1.0660
     1.0741   1.0877   1.1192   1.1232   1.1521   1.8684   1.9807   1.9817
     2.1830   2.2032   2.2144   2.3023   2.3236   2.3239   2.3534   2.3567
     2.3891   3.6956   3.6964   3.7704   3.7877   6.6310   6.6341   6.7604
     6.7670   6.7687   6.8008   6.8088   6.8862  11.3751  11.4579  11.4595
    11.5004  11.5018  11.5190  11.7037  11.7041  11.7366  11.7425  11.7885
    11.8010

          k = 0.0000-0.5774 0.0000 (  9510 PWs)   bands (ev):

   -40.5730 -12.1059 -11.9913 -11.8730 -11.7432 -10.7647 -10.7481 -10.5502
   -10.5096  -8.3460  -8.2913  -8.2896  -8.2717  -8.1396  -8.1083  -8.0958
    -8.0666  -7.5045  -7.3763  -6.3270  -6.2148  -4.6595  -4.6386  -4.5757
    -4.5485  -4.4923  -4.4862  -4.4240  -4.4223  -1.3246  -1.2198  -1.1875
    -1.1528  -1.1315  -1.1174  -1.0728  -1.0569  -0.9991  -0.9735  -0.9077
    -0.9053  -0.7859  -0.6563   0.3611   0.4160   0.4228   0.4793   0.5120
     0.5191   0.7740   0.7841   0.8344   1.0347   1.3996   1.4589   1.5033
     1.5663   2.3240   2.3801   2.5616   2.6295   2.6585   2.7007   3.4161
     3.5274   3.6469   3.6500   4.0975   4.6322   4.7057   4.7634   4.8276
     4.8480   8.3035   8.7967   8.8724   8.9846   9.0006   9.0289   9.5598
     9.6233   9.6450   9.6738  11.6405  11.6845  12.8174  12.8573  12.9573
    13.2065

          k = 0.0000-0.5774-0.5393 (  9508 PWs)   bands (ev):

   -40.5730 -12.0506 -11.9333 -11.9069 -11.8340 -10.7056 -10.6756 -10.6135
   -10.5876  -8.3035  -8.2445  -8.2363  -8.2168  -8.1864  -8.1608  -8.1543
    -8.1178  -7.4811  -7.3944  -6.3240  -6.2293  -4.6324  -4.6194  -4.5489
    -4.5160  -4.5146  -4.5086  -4.4619  -4.4523  -1.3161  -1.2053  -1.1791
    -1.1382  -1.1376  -1.1325  -1.0807  -1.0727  -0.9938  -0.9654  -0.9118
    -0.9105  -0.1661   0.0052   0.0696   0.1481   0.3667   0.4218   0.4281
     0.4767   0.5114   0.5169   1.4041   1.4410   1.4624   1.4708   1.4957
     1.5528   1.5797   1.5810   2.5637   2.6299   2.6554   2.6950   3.8735
     4.0183   4.0645   4.1705   4.1775   4.1849   4.2387   4.2907   4.4542
     4.5321   8.3891   8.4486   9.1187   9.1329   9.1816   9.2617   9.2764
     9.3177   9.3408   9.4020  12.9863  13.0277  13.0311  13.0933  13.6791
    13.8085

          k = 0.5000-0.2887 0.0000 (  9510 PWs)   bands (ev):

   -40.5730 -12.1060 -11.9913 -11.8731 -11.7432 -10.7645 -10.7483 -10.5498
   -10.5097  -8.3458  -8.2910  -8.2892  -8.2724  -8.1396  -8.1077  -8.0936
    -8.0698  -7.5038  -7.3749  -6.3277  -6.2195  -4.6590  -4.6386  -4.5758
    -4.5482  -4.4914  -4.4838  -4.4243  -4.4209  -1.3243  -1.2198  -1.1877
    -1.1533  -1.1350  -1.1152  -1.0743  -1.0582  -0.9990  -0.9728  -0.9029
    -0.9003  -0.7857  -0.6559   0.3610   0.4156   0.4231   0.4839   0.5053
     0.5126   0.7738   0.7829   0.8345   1.0349   1.3999   1.4545   1.4952
     1.5651   2.3244   2.3794   2.5620   2.6298   2.6723   2.7014   3.4191
     3.5239   3.6471   3.6504   4.1019   4.6304   4.7060   4.7640   4.8256
     4.8494   8.2955   8.7899   8.8760   8.9820   9.0039   9.0308   9.5587
     9.6229   9.6521   9.6742  11.6398  11.6844  12.8206  12.8538  12.9597
    13.2110

          k =-0.5000-0.2887 0.0000 (  9510 PWs)   bands (ev):

   -40.5730 -12.1060 -11.9912 -11.8731 -11.7431 -10.7645 -10.7483 -10.5497
   -10.5097  -8.3460  -8.2907  -8.2891  -8.2725  -8.1399  -8.1073  -8.0924
    -8.0713  -7.5033  -7.3743  -6.3285  -6.2217  -4.6587  -4.6385  -4.5758
    -4.5480  -4.4910  -4.4826  -4.4246  -4.4203  -1.3243  -1.2197  -1.1879
    -1.1534  -1.1358  -1.1153  -1.0748  -1.0590  -0.9986  -0.9722  -0.9004
    -0.8979  -0.7856  -0.6556   0.3611   0.4150   0.4230   0.4861   0.5021
     0.5095   0.7741   0.7820   0.8344   1.0350   1.3992   1.4519   1.4919
     1.5647   2.3245   2.3791   2.5628   2.6300   2.6786   2.7020   3.4209
     3.5218   3.6474   3.6506   4.1044   4.6295   4.7064   4.7640   4.8247
     4.8499   8.2909   8.7887   8.8752   8.9816   9.0051   9.0316   9.5581
     9.6229   9.6561   9.6743  11.6394  11.6843  12.8223  12.8519  12.9619
    13.2133

          k = 0.5000-0.2887-0.5393 (  9508 PWs)   bands (ev):

   -40.5730 -12.0507 -11.9334 -11.9069 -11.8340 -10.7054 -10.6757 -10.6131
   -10.5878  -8.3031  -8.2451  -8.2361  -8.2168  -8.1869  -8.1582  -8.1528
    -8.1218  -7.4811  -7.3922  -6.3239  -6.2350  -4.6325  -4.6194  -4.5489
    -4.5158  -4.5115  -4.5085  -4.4598  -4.4527  -1.3158  -1.2054  -1.1791
    -1.1428  -1.1377  -1.1293  -1.0826  -1.0737  -0.9938  -0.9655  -0.9064
    -0.9052  -0.1662   0.0054   0.0696   0.1488   0.3665   0.4219   0.4283
     0.4817   0.5044   0.5102   1.4046   1.4407   1.4588   1.4700   1.4880
     1.5523   1.5783   1.5792   2.5639   2.6297   2.6701   2.6957   3.8742
     4.0166   4.0654   4.1673   4.1824   4.1870   4.2393   4.2866   4.4544
     4.5354   8.3916   8.4345   9.1201   9.1324   9.1777   9.2684   9.2759
     9.3183   9.3439   9.4030  12.9857  13.0300  13.0310  13.0940  13.6790
    13.8072

          k =-0.5000-0.2887-0.5393 (  9508 PWs)   bands (ev):

   -40.5730 -12.0507 -11.9335 -11.9069 -11.8340 -10.7055 -10.6757 -10.6129
   -10.5878  -8.3031  -8.2449  -8.2365  -8.2166  -8.1876  -8.1565  -8.1521
    -8.1238  -7.4809  -7.3911  -6.3242  -6.2376  -4.6324  -4.6194  -4.5488
    -4.5147  -4.5108  -4.5085  -4.4589  -4.4531  -1.3158  -1.2054  -1.1793
    -1.1428  -1.1377  -1.1300  -1.0828  -1.0749  -0.9935  -0.9652  -0.9036
    -0.9027  -0.1663   0.0055   0.0696   0.1491   0.3666   0.4214   0.4281
     0.4841   0.5012   0.5070   1.4039   1.4407   1.4556   1.4699   1.4854
     1.5521   1.5773   1.5788   2.5647   2.6299   2.6766   2.6963   3.8746
     4.0170   4.0645   4.1689   4.1832   4.1867   4.2396   4.2847   4.4546
     4.5369   8.3922   8.4274   9.1207   9.1320   9.1772   9.2705   9.2758
     9.3189   9.3456   9.4035  12.9858  13.0300  13.0322  13.0943  13.6785
    13.8058

     the Fermi energy is     7.1431 ev

!    total energy              =    -692.78215819 Ry
     Harris-Foulkes estimate   =    -692.78215819 Ry
     estimated scf accuracy    <          3.5E-09 Ry

     total all-electron energy =     -2772.827161 Ry

     The total energy is the sum of the following terms:

     one-electron contribution =    -109.79576918 Ry
     hartree contribution      =     130.11476302 Ry
     xc contribution           =    -175.90360483 Ry
     ewald contribution        =    -306.18658702 Ry
     one-center paw contrib.   =    -230.83825937 Ry
     smearing contrib. (-TS)   =      -0.17270082 Ry

     convergence has been achieved in   8 iterations

     Forces acting on atoms (cartesian axes, Ry/au):

     atom    1 type  1   force =    -0.00785233    0.00298004    0.00187249
     atom    2 type  1   force =     0.00208529   -0.00724620   -0.00402550
     atom    3 type  1   force =    -0.00313427    0.00102784   -0.00023087
     atom    4 type  1   force =     0.00035549   -0.00095459    0.00205437
     atom    5 type  1   force =    -0.00063355    0.00118114   -0.00078892
     atom    6 type  1   force =    -0.00477945    0.00317642   -0.00383140
     atom    7 type  1   force =    -0.00044672    0.00051854    0.00191004
     atom    8 type  1   force =     0.00256504    0.00079033    0.00806857
     atom    9 type  1   force =    -0.00046107   -0.00739350    0.00191725
     atom   10 type  1   force =     0.00031573    0.00082972    0.00144649
     atom   11 type  1   force =    -0.00022649   -0.00417304   -0.00022524
     atom   12 type  1   force =     0.00002886    0.00116982    0.00132670
     atom   13 type  1   force =     0.00797041    0.00357954    0.00185532
     atom   14 type  1   force =    -0.00298343   -0.00788891   -0.00400658
     atom   15 type  1   force =     0.00258328    0.00097071   -0.00025287
     atom   16 type  1   force =    -0.00313231   -0.00238844   -0.00037093
     atom   17 type  1   force =     0.00072312    0.01030073   -0.01151351
     atom   18 type  1   force =    -0.00138768   -0.00403400    0.00831331
     atom   19 type  1   force =    -0.00038017    0.00344308    0.00800891
     atom   20 type  1   force =    -0.00232573    0.00039021    0.00760364
     atom   21 type  1   force =     0.00696173   -0.00141725   -0.01165118
     atom   22 type  1   force =    -0.00821736    0.00107294   -0.00376006
     atom   23 type  1   force =     0.00192501   -0.00229369    0.00710248
     atom   24 type  1   force =    -0.00022756   -0.00161564    0.00660078
     atom   25 type  1   force =     0.00067548   -0.00039761   -0.00061955
     atom   26 type  1   force =     0.00012091    0.00035589    0.00136356
     atom   27 type  1   force =     0.00030097   -0.00040488    0.00092737
     atom   28 type  1   force =     0.00267456   -0.00240255   -0.00037335
     atom   29 type  1   force =     0.00086438    0.00182611   -0.00074015
     atom   30 type  1   force =     0.00467535    0.00318166   -0.00373484
     atom   31 type  1   force =     0.00041665    0.00088248    0.00155032
     atom   32 type  1   force =    -0.00024012    0.00263031   -0.00041662
     atom   33 type  1   force =    -0.00507997   -0.00116694   -0.01167880
     atom   34 type  1   force =     0.00716142    0.00143646   -0.00368222
     atom   35 type  1   force =    -0.00195226   -0.00187074    0.00660991
     atom   36 type  1   force =     0.00001813    0.00078595    0.00101957
     atom   37 type  2   force =     0.00103863    0.00311806   -0.00764849

     Total force =     0.042820     Total SCF correction =     0.000075

     number of scf cycles    =   4
     number of bfgs steps    =   3

     energy   old            =    -692.7798017474 Ry
     energy   new            =    -692.7821581948 Ry

     CASE: energy  _new < energy  _old

     new trust radius        =       0.0347473125 bohr
     new conv_thr            =       0.0000000117 Ry


ATOMIC_POSITIONS (angstrom)
C       -0.000072731   0.000155871   0.007665475
C       -0.002086247   1.427508372  -0.005678980
C        0.000146554  -0.001016705   3.443081720
C        1.237991211   0.707093892   3.445555413
C       -1.239660941   2.143845458  -0.003805007
C       -1.241042974   3.573227035  -0.005022910
C       -1.244509347   2.140483169   3.444743403
C       -0.007332997   2.854339851   3.476502868
C       -2.476105308   4.288934383   0.007699643
C       -2.476081488   5.718590295  -0.000457119
C       -2.476397418   4.289184959   3.443217619
C       -1.243727881   5.006542706   3.443851023
C        2.476376652   0.000188014   0.007630008
C        2.478299227   1.427380798  -0.005505293
C        2.475771969  -0.000868838   3.442986686
C        3.714911696   0.714611294   3.443015240
C        1.238263582   2.139658418  -0.055673930
C        1.238491834   3.575193172  -0.149069418
C        1.237818666   2.135209775   3.478653158
C        2.482591141   2.854548346   3.473333239
C       -0.003916192   4.291669325  -0.053100529
C       -0.001033191   5.721651067  -0.004430388
C       -0.006802983   4.291858166   3.472231563
C        1.237811895   5.009943974   3.467697186
C        4.952452113   0.001722435  -0.003412079
C        4.952347849   1.429724124   0.001569223
C        4.952194925   0.005696671   3.442489783
C        6.189444636   0.714437922   3.442943243
C        3.715913999   2.143957187  -0.003678102
C        3.717392858   3.573234082  -0.004586446
C        3.720039459   2.140715329   3.443892913
C        4.952027976   2.858322610   3.442733603
C        2.480260850   4.291566369  -0.052083658
C        2.477210842   5.721704562  -0.004169765
C        2.482143898   4.291689767   3.469455912
C        3.719326987   5.006321751   3.443165752
Li       1.222624519   3.529121006   1.864691905



     Writing output data file Li_CNT.save/
     NEW-OLD atomic charge density approx. for the potential

     Check: negative core charge=   -0.000003

     total cpu time spent up to now is      286.7 secs

     Self-consistent Calculation

     iteration #  1     ecut=    40.00 Ry     beta= 0.40
     Davidson diagonalization with overlap
     ethr =  1.00E-06,  avg # of iterations =  4.6

     total cpu time spent up to now is      301.3 secs

     total energy              =    -692.78346510 Ry
     Harris-Foulkes estimate   =    -692.78293117 Ry
     estimated scf accuracy    <       0.00128587 Ry

     iteration #  2     ecut=    40.00 Ry     beta= 0.40
     Davidson diagonalization with overlap
     ethr =  8.75E-07,  avg # of iterations =  3.6

     total cpu time spent up to now is      309.9 secs

     total energy              =    -692.78365001 Ry
     Harris-Foulkes estimate   =    -692.78367741 Ry
     estimated scf accuracy    <       0.00017042 Ry

     iteration #  3     ecut=    40.00 Ry     beta= 0.40
     Davidson diagonalization with overlap
     ethr =  1.16E-07,  avg # of iterations =  2.0

     total cpu time spent up to now is      317.1 secs

     total energy              =    -692.78366986 Ry
     Harris-Foulkes estimate   =    -692.78366750 Ry
     estimated scf accuracy    <       0.00003884 Ry

     iteration #  4     ecut=    40.00 Ry     beta= 0.40
     Davidson diagonalization with overlap
     ethr =  2.64E-08,  avg # of iterations =  2.1

     total cpu time spent up to now is      324.0 secs

     total energy              =    -692.78367432 Ry
     Harris-Foulkes estimate   =    -692.78367287 Ry
     estimated scf accuracy    <       0.00000429 Ry

     iteration #  5     ecut=    40.00 Ry     beta= 0.40
     Davidson diagonalization with overlap
     ethr =  2.92E-09,  avg # of iterations =  2.4

     total cpu time spent up to now is      331.3 secs

     total energy              =    -692.78367500 Ry
     Harris-Foulkes estimate   =    -692.78367484 Ry
     estimated scf accuracy    <       0.00000051 Ry

     iteration #  6     ecut=    40.00 Ry     beta= 0.40
     Davidson diagonalization with overlap
     ethr =  3.49E-10,  avg # of iterations =  2.8

     total cpu time spent up to now is      336.1 secs

     total energy              =    -692.78367516 Ry
     Harris-Foulkes estimate   =    -692.78367510 Ry
     estimated scf accuracy    <       0.00000008 Ry

     iteration #  7     ecut=    40.00 Ry     beta= 0.40
     Davidson diagonalization with overlap
     ethr =  5.55E-11,  avg # of iterations =  2.0

     total cpu time spent up to now is      339.3 secs

     total energy              =    -692.78367518 Ry
     Harris-Foulkes estimate   =    -692.78367516 Ry
     estimated scf accuracy    <       0.00000001 Ry

     iteration #  8     ecut=    40.00 Ry     beta= 0.40
     Davidson diagonalization with overlap
     ethr =  9.65E-12,  avg # of iterations =  2.2

     total cpu time spent up to now is      346.1 secs

     End of self-consistent calculation

          k = 0.0000 0.0000 0.0000 (  9489 PWs)   bands (ev):

   -40.5988 -12.6974 -12.4472 -10.2559 -10.1739 -10.1732 -10.0667 -10.0514
   -10.0509 -10.0434  -9.9182  -9.9169  -9.8400  -9.8393  -9.8178  -5.8783
    -5.8777  -5.7944  -5.7938  -5.7389  -5.6979  -5.6657  -5.6654  -3.6367
    -3.5456  -3.4828  -3.4819  -2.8609  -2.8600  -2.8375  -2.8366  -2.8354
    -2.8053  -2.7174  -2.7103  -2.7094  -2.6768  -2.6745  -2.6664  -1.5039
     0.1682   0.9644   0.9648   0.9952   1.0346   1.0349   1.0651   1.0668
     1.0684   1.1019   1.1358   1.1401   1.1426   1.3942   1.3988   1.4286
     1.6508   1.6520   1.6781   2.7031   2.9571   2.9598   3.1279   3.1292
     3.1525   3.6972   3.6974   3.7856   3.7867   6.1630   6.1748   6.6854
     6.6964   6.7476   6.8658   7.4081   7.4135  10.8450  11.2198  11.2241
    11.2353  11.2383  11.2461  11.3891  11.9492  12.0742  12.0773  12.1047
    12.1079

          k = 0.0000 0.0000-0.5393 (  9506 PWs)   bands (ev):

   -40.5988 -12.6263 -12.5251 -10.2312 -10.1158 -10.1157 -10.0919  -9.9841
    -9.9828  -9.9806  -9.9702  -9.9698  -9.9244  -9.9229  -9.8840  -5.8531
    -5.8529  -5.7732  -5.7731  -5.7381  -5.7137  -5.7134  -5.6966  -3.6388
    -3.5490  -3.4864  -3.4855  -2.8365  -2.8364  -2.8158  -2.8149  -2.8145
    -2.7740  -2.7504  -2.7374  -2.7369  -2.6986  -2.6964  -2.6871  -0.8068
    -0.6876   0.9728   0.9730   1.0001   1.0393   1.0394   1.0725   1.0740
     1.0753   1.0971   1.1300   1.1373   1.1401   1.8534   1.9867   1.9877
     2.1915   2.2112   2.2205   2.3100   2.3229   2.3237   2.3490   2.3531
     2.4082   3.6969   3.6971   3.7832   3.7842   6.6350   6.6367   6.7669
     6.7674   6.7695   6.8065   6.8129   6.8905  11.3936  11.4564  11.4573
    11.5080  11.5160  11.5303  11.7060  11.7069  11.7422  11.7491  11.7748
    11.7984

          k = 0.0000-0.5774 0.0000 (  9510 PWs)   bands (ev):

   -40.5988 -12.1074 -11.9872 -11.8684 -11.7374 -10.7625 -10.7460 -10.5436
   -10.5056  -8.3409  -8.2952  -8.2923  -8.2646  -8.1389  -8.0922  -8.0913
    -8.0649  -7.5020  -7.3692  -6.3262  -6.2126  -4.6603  -4.6374  -4.5712
    -4.5458  -4.4853  -4.4832  -4.4166  -4.4127  -1.3209  -1.2212  -1.1866
    -1.1489  -1.1272  -1.1129  -1.0683  -1.0561  -0.9986  -0.9734  -0.8954
    -0.8918  -0.7893  -0.6506   0.3630   0.4175   0.4243   0.4875   0.5122
     0.5168   0.7795   0.7866   0.8356   1.0391   1.3946   1.4639   1.5153
     1.5559   2.3296   2.3815   2.5704   2.6240   2.6636   2.7171   3.4225
     3.5257   3.6441   3.6564   4.1020   4.6429   4.7123   4.7601   4.8351
     4.8509   8.3038   8.7987   8.8762   8.9929   9.0035   9.0310   9.5723
     9.6201   9.6489   9.6832  11.6250  11.6767  12.8199  12.8636  12.9350
    13.2102

          k = 0.0000-0.5774-0.5393 (  9508 PWs)   bands (ev):

   -40.5988 -12.0541 -11.9269 -11.9045 -11.8266 -10.7051 -10.6749 -10.6051
   -10.5821  -8.3015  -8.2465  -8.2432  -8.2092  -8.1865  -8.1525  -8.1352
    -8.1174  -7.4795  -7.3862  -6.3231  -6.2273  -4.6338  -4.6188  -4.5464
    -4.5142  -4.5074  -4.5059  -4.4539  -4.4391  -1.3124  -1.2077  -1.1783
    -1.1333  -1.1326  -1.1272  -1.0755  -1.0730  -0.9938  -0.9667  -0.8985
    -0.8964  -0.1828   0.0211   0.0731   0.1547   0.3683   0.4240   0.4293
     0.4859   0.5111   0.5147   1.3974   1.4442   1.4596   1.4779   1.5043
     1.5495   1.5820   1.5864   2.5721   2.6243   2.6596   2.7124   3.8733
     4.0130   4.0653   4.1808   4.1905   4.1947   4.2407   4.2883   4.4587
[...]
C        0.000946928   0.000394318  -0.044404766
C       -0.002118994   1.428255240  -0.063743349
C       -0.000871662  -0.003887415   3.489193322
C        1.236792880   0.705785313   3.495969067
C       -1.239176637   2.144229224  -0.057527627
C       -1.240769222   3.573944612  -0.064296360
C       -1.244067922   2.137988212   3.495748557
C       -0.006719485   2.852436150   3.541005556
C       -2.475854282   4.290292744  -0.044830884
C       -2.475860619   5.719117684  -0.047123184
C       -2.477420296   4.285642104   3.489194022
C       -1.244038679   5.002615231   3.496056897
C        2.475812753   0.000399492  -0.044253280
C        2.478941895   1.428237921  -0.063932170
C        2.474508087  -0.003876233   3.489285784
C        3.713413119   0.711432163   3.488607590
C        1.238337767   2.139793574  -0.109051670
C        1.238411822   3.574908970  -0.178149128
C        1.236830008   2.134391191   3.541571799
C        2.480301201   2.852450296   3.541144236
C       -0.004371081   4.292080156  -0.109906479
C       -0.000359846   5.722391263  -0.064846376
C       -0.006719394   4.288358308   3.542093789
C        1.236802885   5.006189192   3.541571333
C        4.952571155   0.002535841  -0.058682246
C        4.952579258   1.430294836  -0.047967054
C        4.951015559   0.001849619   3.495699923
C        6.188664118   0.711436911   3.488634983
C        3.715938157   2.144184731  -0.057894157
C        3.717551651   3.573962249  -0.064701467
C        3.717673031   2.137970228   3.495708725
C        4.951042479   2.855060100   3.488807077
C        2.481103081   4.292113372  -0.110259282
C        2.477161684   5.722337989  -0.065062871
C        2.480337423   4.288333805   3.542175880
C        3.717665668   5.002639022   3.495966499
Li       1.237031154   3.571858200   1.836330268



     Writing output data file Li_CNT.save/
     NEW-OLD atomic charge density approx. for the potential

     Check: negative core charge=   -0.000003

     total cpu time spent up to now is      944.4 secs

     Self-consistent Calculation

     iteration #  1     ecut=    40.00 Ry     beta= 0.40
     Davidson diagonalization with overlap
     ethr =  1.00E-06,  avg # of iterations =  3.1

     Threshold (ethr) on eigenvalues was too large:
     Diagonalizing with lowered threshold

     Davidson diagonalization with overlap
     ethr =  2.54E-08,  avg # of iterations =  3.0

     total cpu time spent up to now is      962.2 secs

     total energy              =    -692.78938647 Ry
     Harris-Foulkes estimate   =    -692.78933579 Ry
     estimated scf accuracy    <       0.00003951 Ry

     iteration #  2     ecut=    40.00 Ry     beta= 0.40
     Davidson diagonalization with overlap
     ethr =  2.69E-08,  avg # of iterations =  2.0

     total cpu time spent up to now is      970.5 secs

     total energy              =    -692.78938936 Ry
     Harris-Foulkes estimate   =    -692.78939044 Ry
     estimated scf accuracy    <       0.00000687 Ry

     iteration #  3     ecut=    40.00 Ry     beta= 0.40
     Davidson diagonalization with overlap
     ethr =  4.67E-09,  avg # of iterations =  2.8

     total cpu time spent up to now is      975.5 secs

     total energy              =    -692.78939017 Ry
     Harris-Foulkes estimate   =    -692.78939007 Ry
     estimated scf accuracy    <       0.00000108 Ry

     iteration #  4     ecut=    40.00 Ry     beta= 0.40
     Davidson diagonalization with overlap
     ethr =  7.34E-10,  avg # of iterations =  2.8

     total cpu time spent up to now is      985.0 secs

     total energy              =    -692.78939036 Ry
     Harris-Foulkes estimate   =    -692.78939031 Ry
     estimated scf accuracy    <       0.00000015 Ry

     iteration #  5     ecut=    40.00 Ry     beta= 0.40
     Davidson diagonalization with overlap
     ethr =  1.05E-10,  avg # of iterations =  2.1

     total cpu time spent up to now is      994.2 secs

     total energy              =    -692.78939039 Ry
     Harris-Foulkes estimate   =    -692.78939038 Ry
     estimated scf accuracy    <       0.00000003 Ry

     iteration #  6     ecut=    40.00 Ry     beta= 0.40
     Davidson diagonalization with overlap
     ethr =  1.83E-11,  avg # of iterations =  2.1

     total cpu time spent up to now is     1002.9 secs

     End of self-consistent calculation

          k = 0.0000 0.0000 0.0000 (  9489 PWs)   bands (ev):

   -40.7172 -12.6806 -12.4247 -10.2361 -10.1514 -10.1512 -10.0420 -10.0332
   -10.0330 -10.0209  -9.9001  -9.8996  -9.8174  -9.8170  -9.7992  -5.8472
    -5.8470  -5.7682  -5.7679  -5.7289  -5.6864  -5.6479  -5.6476  -3.5972
    -3.5176  -3.4743  -3.4737  -2.8282  -2.8277  -2.8143  -2.8138  -2.8096
    -2.7860  -2.6922  -2.6921  -2.6910  -2.6649  -2.6633  -2.6544  -1.5097
     0.2003   0.9986   0.9987   1.0152   1.0658   1.0659   1.0891   1.0909
     1.0927   1.1144   1.1521   1.1530   1.1544   1.3964   1.3968   1.4019
     1.6599   1.6600   1.6904   2.7311   2.9916   2.9916   3.1546   3.1551
     3.1793   3.7293   3.7295   3.7953   3.7985   6.1806   6.1813   6.7211
     6.7216   6.7551   6.8751   7.4434   7.4439  10.8181  11.2268  11.2481
    11.2497  11.2570  11.2579  11.3881  11.9750  12.1000  12.1004  12.1262
    12.1263

          k = 0.0000 0.0000-0.5393 (  9506 PWs)   bands (ev):

   -40.7173 -12.6131 -12.4990 -10.2135 -10.0901 -10.0900 -10.0650  -9.9693
    -9.9689  -9.9573  -9.9562  -9.9559  -9.8962  -9.8956  -9.8686  -5.8158
    -5.8157  -5.7514  -5.7513  -5.7283  -5.6979  -5.6978  -5.6851  -3.5991
    -3.5211  -3.4779  -3.4773  -2.7984  -2.7983  -2.7905  -2.7903  -2.7859
    -2.7629  -2.7240  -2.7227  -2.7176  -2.6898  -2.6881  -2.6780  -0.9185
    -0.5509   1.0092   1.0093   1.0206   1.0716   1.0718   1.0875   1.0894
     1.1023   1.1081   1.1467   1.1482   1.1496   1.7543   1.9870   1.9872
     2.2249   2.2253   2.2630   2.2748   2.2752   2.3019   2.4595   2.4602
     2.4907   3.7282   3.7284   3.7930   3.7962   6.6604   6.6605   6.7391
     6.7393   6.7727   6.8857   6.8865   6.8998  11.3701  11.4761  11.4762
    11.5339  11.5342  11.5635  11.7145  11.7146  11.7715  11.7716  11.7945
    11.8328

          k = 0.0000-0.5774 0.0000 (  9510 PWs)   bands (ev):

   -40.7173 -12.0906 -11.9682 -11.8457 -11.7161 -10.7431 -10.7267 -10.5210
   -10.4854  -8.3121  -8.2746  -8.2744  -8.2437  -8.1132  -8.0767  -8.0726
    -8.0444  -7.4752  -7.3545  -6.2980  -6.1978  -4.6289  -4.6138  -4.5458
    -4.5247  -4.4692  -4.4667  -4.3977  -4.3975  -1.2725  -1.1991  -1.1600
    -1.1242  -1.1171  -1.0999  -1.0514  -1.0375  -0.9709  -0.9473  -0.8834
    -0.8812  -0.8104  -0.6415   0.4017   0.4469   0.4514   0.5036   0.5237
     0.5320   0.7876   0.8122   0.8321   1.0689   1.4265   1.4855   1.5317
     1.5730   2.3593   2.4123   2.6000   2.6531   2.6817   2.7251   3.4429
     3.5323   3.6406   3.6677   4.1165   4.6662   4.7391   4.7891   4.8619
     4.8758   8.3178   8.8264   8.8999   9.0131   9.0159   9.0412   9.5974
     9.6464   9.6782   9.7021  11.5484  11.6136  12.7800  12.8439  12.8808
    13.2542

          k = 0.0000-0.5774-0.5393 (  9508 PWs)   bands (ev):

   -40.7173 -12.0402 -11.9014 -11.8869 -11.8038 -10.6873 -10.6550 -10.5808
   -10.5626  -8.2680  -8.2345  -8.2191  -8.1896  -8.1549  -8.1344  -8.1243
    -8.0989  -7.4492  -7.3751  -6.2927  -6.2147  -4.5972  -4.5945  -4.5180
    -4.5034  -4.4932  -4.4808  -4.4375  -4.4271  -1.2611  -1.1834  -1.1509
    -1.1275  -1.1169  -1.1051  -1.0612  -1.0570  -0.9647  -0.9382  -0.8893
    -0.8872  -0.3032   0.0142   0.1551   0.2518   0.4081   0.4553   0.4569
     0.4975   0.5205   0.5288   1.3644   1.4123   1.4324   1.5025   1.5167
     1.5663   1.6478   1.7079   2.6024   2.6559   2.6731   2.7201   3.9093
     3.9964   4.0220   4.1205   4.2048   4.2548   4.3285   4.3483   4.4607
     4.5734   8.3835   8.4940   9.1215   9.1976   9.2164   9.2324   9.2460
     9.3700   9.3997   9.4317  13.0048  13.0416  13.0441  13.1262  13.3263
    13.4605

          k = 0.5000-0.2887 0.0000 (  9510 PWs)   bands (ev):

   -40.7173 -12.0906 -11.9682 -11.8457 -11.7161 -10.7432 -10.7266 -10.5212
   -10.4851  -8.3123  -8.2744  -8.2742  -8.2439  -8.1132  -8.0772  -8.0718
    -8.0449  -7.4747  -7.3547  -6.2977  -6.1991  -4.6289  -4.6137  -4.5459
    -4.5246  -4.4692  -4.4660  -4.3978  -4.3972  -1.2725  -1.1990  -1.1601
    -1.1244  -1.1176  -1.0996  -1.0518  -1.0377  -0.9709  -0.9470  -0.8823
    -0.8808  -0.8103  -0.6414   0.4017   0.4470   0.4515   0.5044   0.5228
     0.5303   0.7875   0.8122   0.8318   1.0689   1.4264   1.4847   1.5303
     1.5729   2.3593   2.4123   2.6001   2.6537   2.6839   2.7251   3.4429
     3.5322   3.6405   3.6673   4.1197   4.6641   4.7390   4.7897   4.8621
     4.8745   8.3227   8.8224   8.8982   9.0120   9.0156   9.0390   9.5980
     9.6469   9.6803   9.7034  11.5484  11.6136  12.7802  12.8469  12.8833
    13.2515

          k =-0.5000-0.2887 0.0000 (  9510 PWs)   bands (ev):

   -40.7173 -12.0906 -11.9682 -11.8457 -11.7161 -10.7433 -10.7265 -10.5213
   -10.4850  -8.3123  -8.2744  -8.2741  -8.2439  -8.1133  -8.0773  -8.0715
    -8.0450  -7.4744  -7.3549  -6.2977  -6.1995  -4.6289  -4.6137  -4.5459
    -4.5245  -4.4692  -4.4658  -4.3978  -4.3971  -1.2725  -1.1991  -1.1601
    -1.1244  -1.1178  -1.0994  -1.0519  -1.0378  -0.9707  -0.9468  -0.8818
    -0.8809  -0.8103  -0.6414   0.4017   0.4469   0.4515   0.5046   0.5225
     0.5297   0.7874   0.8122   0.8317   1.0689   1.4262   1.4844   1.5299
     1.5729   2.3592   2.4123   2.6003   2.6539   2.6846   2.7252   3.4430
     3.5320   3.6404   3.6673   4.1213   4.6629   4.7390   4.7899   4.8624
     4.8738   8.3252   8.8204   8.8973   9.0116   9.0151   9.0379   9.5984
     9.6472   9.6815   9.7039  11.5484  11.6136  12.7802  12.8484  12.8846
    13.2502

          k = 0.5000-0.2887-0.5393 (  9508 PWs)   bands (ev):

   -40.7173 -12.0401 -11.9014 -11.8870 -11.8039 -10.6873 -10.6550 -10.5811
   -10.5622  -8.2681  -8.2344  -8.2190  -8.1895  -8.1550  -8.1333  -8.1249
    -8.0995  -7.4492  -7.3747  -6.2926  -6.2159  -4.5972  -4.5945  -4.5180
    -4.5034  -4.4927  -4.4806  -4.4370  -4.4273  -1.2611  -1.1834  -1.1509
    -1.1280  -1.1166  -1.1051  -1.0617  -1.0572  -0.9648  -0.9382  -0.8879
    -0.8865  -0.3031   0.0141   0.1550   0.2520   0.4081   0.4554   0.4569
     0.4984   0.5196   0.5270   1.3643   1.4123   1.4324   1.5018   1.5152
     1.5661   1.6478   1.7077   2.6023   2.6559   2.6759   2.7202   3.9090
     3.9968   4.0220   4.1207   4.2047   4.2549   4.3285   4.3479   4.4614
     4.5732   8.3834   8.4924   9.1216   9.1976   9.2154   9.2325   9.2467
     9.3698   9.4006   9.4322  13.0052  13.0419  13.0444  13.1256  13.3274
    13.4592

          k =-0.5000-0.2887-0.5393 (  9508 PWs)   bands (ev):

   -40.7173 -12.0402 -11.9014 -11.8869 -11.8038 -10.6873 -10.6550 -10.5813
   -10.5621  -8.2680  -8.2345  -8.2191  -8.1894  -8.1551  -8.1329  -8.1251
    -8.0997  -7.4491  -7.3746  -6.2927  -6.2163  -4.5972  -4.5945  -4.5180
    -4.5034  -4.4925  -4.4805  -4.4368  -4.4274  -1.2610  -1.1834  -1.1509
    -1.1281  -1.1166  -1.1050  -1.0618  -1.0573  -0.9647  -0.9381  -0.8872
    -0.8864  -0.3031   0.0141   0.1550   0.2520   0.4081   0.4553   0.4569
     0.4987   0.5194   0.5263   1.3642   1.4122   1.4322   1.5016   1.5147
     1.5660   1.6478   1.7076   2.6026   2.6559   2.6768   2.7202   3.9090
     3.9969   4.0220   4.1208   4.2047   4.2549   4.3284   4.3479   4.4618
     4.5731   8.3834   8.4916   9.1215   9.1976   9.2151   9.2325   9.2471
     9.3697   9.4010   9.4323  13.0053  13.0421  13.0445  13.1252  13.3279
    13.4587

     the Fermi energy is     7.1672 ev

!    total energy              =    -692.78939040 Ry
     Harris-Foulkes estimate   =    -692.78939039 Ry
     estimated scf accuracy    <          3.1E-09 Ry

     total all-electron energy =     -2772.834393 Ry

     The total energy is the sum of the following terms:

     one-electron contribution =    -110.29354741 Ry
     hartree contribution      =     130.46583127 Ry
     xc contribution           =    -175.88668456 Ry
     ewald contribution        =    -306.06420591 Ry
     one-center paw contrib.   =    -230.83802874 Ry
     smearing contrib. (-TS)   =      -0.17275503 Ry

     convergence has been achieved in   6 iterations

     Forces acting on atoms (cartesian axes, Ry/au):

     atom    1 type  1   force =    -0.00029732    0.00004814   -0.00078124
     atom    2 type  1   force =     0.00036241   -0.00023690   -0.00079227
     atom    3 type  1   force =     0.00044603   -0.00027868    0.00027059
     atom    4 type  1   force =     0.00007820   -0.00004380    0.00000540
     atom    5 type  1   force =    -0.00051950    0.00017817   -0.00049104
     atom    6 type  1   force =    -0.00012826   -0.00032292   -0.00074251
     atom    7 type  1   force =    -0.00015066    0.00008012   -0.00003586
     atom    8 type  1   force =     0.00012684   -0.00001599   -0.00031486
     atom    9 type  1   force =     0.00000478   -0.00014935   -0.00066223
     atom   10 type  1   force =     0.00003176    0.00016920    0.00229933
     atom   11 type  1   force =     0.00000314    0.00040701    0.00029491
     atom   12 type  1   force =     0.00014610    0.00016585    0.00006953
     atom   13 type  1   force =     0.00032335    0.00006119   -0.00082651
     atom   14 type  1   force =    -0.00057977   -0.00022066   -0.00076988
     atom   15 type  1   force =    -0.00052381   -0.00032664    0.00024684
     atom   16 type  1   force =     0.00042283    0.00018414    0.00030691
     atom   17 type  1   force =     0.00017232    0.00031885    0.00105524
     atom   18 type  1   force =    -0.00009897   -0.00050926   -0.00192125
     atom   19 type  1   force =    -0.00008535   -0.00000434   -0.00022960
     atom   20 type  1   force =     0.00000147   -0.00008130   -0.00037281
     atom   21 type  1   force =     0.00026287    0.00058779    0.00122164
     atom   22 type  1   force =    -0.00030451   -0.00038484   -0.00067869
     atom   23 type  1   force =    -0.00025938   -0.00004469   -0.00036074
     atom   24 type  1   force =     0.00000837    0.00022823   -0.00045860
     atom   25 type  1   force =     0.00011315    0.00004772   -0.00026064
     atom   26 type  1   force =     0.00006499    0.00018266    0.00232639
     atom   27 type  1   force =     0.00005410    0.00001033    0.00005633
     atom   28 type  1   force =    -0.00046214    0.00016374    0.00028788
     atom   29 type  1   force =     0.00050139    0.00032087   -0.00041987
     atom   30 type  1   force =     0.00005490   -0.00037256   -0.00069975
     atom   31 type  1   force =     0.00015500    0.00013964   -0.00000020
     atom   32 type  1   force =    -0.00003679   -0.00060442    0.00023631
     atom   33 type  1   force =    -0.00010492    0.00047829    0.00128977
     atom   34 type  1   force =     0.00013388   -0.00022417   -0.00065820
     atom   35 type  1   force =     0.00024999    0.00004943   -0.00039640
     atom   36 type  1   force =    -0.00014803    0.00007479    0.00010602
     atom   37 type  2   force =    -0.00001844   -0.00007563    0.00180007

     Total force =     0.005807     Total SCF correction =     0.000074

     bfgs converged in  16 scf cycles and  15 bfgs steps
     (criteria: energy <  1.0E-04 Ry, force <  1.0E-02 Ry/Bohr)

     End of BFGS Geometry Optimization

     Final energy   =    -692.7893903959 Ry
Begin final coordinates

ATOMIC_POSITIONS (angstrom)
C        0.000946928   0.000394318  -0.044404766
C       -0.002118994   1.428255240  -0.063743349
C       -0.000871662  -0.003887415   3.489193322
C        1.236792880   0.705785313   3.495969067
C       -1.239176637   2.144229224  -0.057527627
C       -1.240769222   3.573944612  -0.064296360
C       -1.244067922   2.137988212   3.495748557
C       -0.006719485   2.852436150   3.541005556
C       -2.475854282   4.290292744  -0.044830884
C       -2.475860619   5.719117684  -0.047123184
C       -2.477420296   4.285642104   3.489194022
C       -1.244038679   5.002615231   3.496056897
C        2.475812753   0.000399492  -0.044253280
C        2.478941895   1.428237921  -0.063932170
C        2.474508087  -0.003876233   3.489285784
C        3.713413119   0.711432163   3.488607590
C        1.238337767   2.139793574  -0.109051670
C        1.238411822   3.574908970  -0.178149128
C        1.236830008   2.134391191   3.541571799
C        2.480301201   2.852450296   3.541144236
C       -0.004371081   4.292080156  -0.109906479
C       -0.000359846   5.722391263  -0.064846376
C       -0.006719394   4.288358308   3.542093789
C        1.236802885   5.006189192   3.541571333
C        4.952571155   0.002535841  -0.058682246
C        4.952579258   1.430294836  -0.047967054
C        4.951015559   0.001849619   3.495699923
C        6.188664118   0.711436911   3.488634983
C        3.715938157   2.144184731  -0.057894157
C        3.717551651   3.573962249  -0.064701467
C        3.717673031   2.137970228   3.495708725
C        4.951042479   2.855060100   3.488807077
C        2.481103081   4.292113372  -0.110259282
C        2.477161684   5.722337989  -0.065062871
C        2.480337423   4.288333805   3.542175880
C        3.717665668   5.002639022   3.495966499
Li       1.237031154   3.571858200   1.836330268
End final coordinates



     Writing output data file Li_CNT.save/

     init_run     :      3.82s CPU      4.03s WALL (       1 calls)
     electrons    :    899.75s CPU    922.91s WALL (      16 calls)
     update_pot   :     17.60s CPU     18.21s WALL (      15 calls)
     forces       :     46.85s CPU     48.18s WALL (      16 calls)

     Called by init_run:
     wfcinit      :      2.01s CPU      2.03s WALL (       1 calls)
     potinit      :      0.77s CPU      0.88s WALL (       1 calls)
     hinit0       :      0.46s CPU      0.48s WALL (       1 calls)

     Called by electrons:
     c_bands      :    704.44s CPU    719.45s WALL (     116 calls)
     sum_band     :     98.56s CPU    100.60s WALL (     116 calls)
     v_of_rho     :     54.88s CPU     60.24s WALL (     131 calls)
     newd         :     36.42s CPU     36.83s WALL (     131 calls)
     PAW_pot      :     17.17s CPU     17.30s WALL (     146 calls)
     mix_rho      :      1.00s CPU      1.12s WALL (     116 calls)

     Called by c_bands:
     init_us_2    :      4.01s CPU      4.12s WALL (    2112 calls)
     cegterg      :    695.55s CPU    710.30s WALL (     928 calls)

     Called by sum_band:
     sum_band:bec :      0.64s CPU      0.65s WALL (    1048 calls)
     addusdens    :     30.20s CPU     30.32s WALL (     116 calls)

     Called by *egterg:
     h_psi        :    289.93s CPU    297.01s WALL (    3630 calls)
     s_psi        :     59.56s CPU     59.80s WALL (    3630 calls)
     g_psi        :      0.49s CPU      0.50s WALL (    2694 calls)
     cdiaghg      :    142.33s CPU    147.80s WALL (    3494 calls)

     Called by h_psi:
     h_psi:pot    :    289.14s CPU    296.20s WALL (    3630 calls)
     h_psi:calbec :     79.12s CPU     81.29s WALL (    3630 calls)
     vloc_psi     :    149.13s CPU    153.81s WALL (    3630 calls)
     add_vuspsi   :     60.81s CPU     61.05s WALL (    3630 calls)

     General routines
     calbec       :    130.28s CPU    134.02s WALL (    5190 calls)
     fft          :     37.94s CPU     43.73s WALL (    9213 calls)
     ffts         :      0.23s CPU      0.24s WALL (     247 calls)
     fftw         :    166.03s CPU    171.02s WALL (  508576 calls)
     interpolate  :      0.63s CPU      0.72s WALL (     131 calls)

     Parallel routines
     fft_scatt_xy :      9.56s CPU      9.72s WALL (  518036 calls)
     fft_scatt_yz :    145.67s CPU    155.64s WALL (  518036 calls)

     PWSCF        :  16m22.27s CPU  16m50.37s WALL


   This run was terminated on:  23:46: 1  10Mar2024            

=------------------------------------------------------------------------------=
   JOB DONE.
=------------------------------------------------------------------------------=
