
     Program PWSCF v.6.4.1 starts on 17May2024 at 21:44: 7 

     This program is part of the open-source Quantum ESPRESSO suite
     for quantum simulation of materials; please cite
         "P. Giannozzi et al., J. Phys.:Condens. Matter 21 395502 (2009);
         "P. Giannozzi et al., J. Phys.:Condens. Matter 29 465901 (2017);
          URL http://www.quantum-espresso.org", 
     in publications or presentations arising from this work. More details at
     http://www.quantum-espresso.org/quote

     Parallel version (MPI), running on    32 processors

     MPI processes distributed on     1 nodes
     R & G space division:  proc/nbgrp/npool/nimage =      32
     Reading input from v2o5.vc-rlx.in

     Current dimensions of program PWSCF are:
     Max number of different atomic species (ntypx) = 10
     Max number of k-points (npk) =  40000
     Max angular momentum in pseudopotentials (lmaxx) =  3

     -------------------------------------------------
     Parameters for Dispersion (Grimme-D2) Correction:
     -------------------------------------------------
       atom      VdW radius       C_6     

        V          2.952        374.666
        O          2.536         24.284

     Subspace diagonalization in iterative solution of the eigenvalue problem:
     one sub-group per band group will be used
     ELPA distributed-memory algorithm (size of sub-group:  4*  4 procs)


     Parallelization info
     --------------------
     sticks:   dense  smooth     PW     G-vecs:    dense   smooth      PW
     Min          22      22      6                 1314     1314     194
     Max          23      23      7                 1327     1327     201
     Sum         717     717    201                42177    42177    6319



     bravais-lattice index     =            8
     lattice parameter (alat)  =       6.6827  a.u.
     unit-cell volume          =    1233.5773 (a.u.)^3
     number of atoms/cell      =           14
     number of atomic types    =            2
     number of electrons       =       112.00
     number of Kohn-Sham states=           56
     kinetic-energy cutoff     =      40.0000  Ry
     charge density cutoff     =     160.0000  Ry
     convergence threshold     =      1.0E-10
     mixing beta               =       0.7000
     number of iterations used =            8  plain     mixing
     Exchange-correlation      = PBE ( 1  4  3  4 0 0)
     nstep                     =          500


     celldm(1)=   6.682682  celldm(2)=   1.263659  celldm(3)=   3.271025
     celldm(4)=   0.000000  celldm(5)=   0.000000  celldm(6)=   0.000000

     crystal axes: (cart. coord. in units of alat)
               a(1) = (   1.000000   0.000000   0.000000 )  
               a(2) = (   0.000000   1.263659   0.000000 )  
               a(3) = (   0.000000   0.000000   3.271025 )  

     reciprocal axes: (cart. coord. in units 2 pi/alat)
               b(1) = (  1.000000  0.000000  0.000000 )  
               b(2) = (  0.000000  0.791352  0.000000 )  
               b(3) = (  0.000000  0.000000  0.305715 )  


     PseudoPot. # 1 for V  read from file:
     /home/mpicuntureo/pseudos/v.nc.upf
     MD5 check sum: 40fb93c06b4f9d8c28c5ccd071294a04
     Pseudo is Norm-conserving + core correction, Zval = 13.0
     Generated using ONCVPSP code by D. R. Hamann
     Using radial grid of 1536 points,  6 beta functions with: 
                l(1) =   0
                l(2) =   0
                l(3) =   1
                l(4) =   1
                l(5) =   2
                l(6) =   2

     PseudoPot. # 2 for O  read from file:
     /home/mpicuntureo/pseudos/o.nc.upf
     MD5 check sum: 3e3f909f7470e8921608ab6b1f57bbae
     Pseudo is Norm-conserving + core correction, Zval =  6.0
     Generated using ONCVPSP code by D. R. Hamann
     Using radial grid of  936 points,  5 beta functions with: 
                l(1) =   0
                l(2) =   0
                l(3) =   1
                l(4) =   1
                l(5) =   2

     atomic species   valence    mass     pseudopotential
        V             13.00    50.94150     V ( 1.00)
        O              6.00    15.99940     O ( 1.00)

      8 Sym. Ops., with inversion, found ( 4 have fractional translation)



   Cartesian axes

     site n.     atom                  positions (alat units)
         1           V   tau(   1) = (   0.0000000   0.4838420   2.1198804  )
         2           V   tau(   2) = (   0.5000000   0.7798175   2.7866567  )
         3           V   tau(   3) = (   0.5000000   0.7798175   0.4843680  )
         4           V   tau(   4) = (   0.0000000   0.4838420   1.1511443  )
         5           O   tau(   5) = (   0.5000000   0.6221939   2.2285187  )
         6           O   tau(   6) = (   0.0000000   0.6414656   2.6780184  )
         7           O   tau(   7) = (   0.0000000   0.6414656   0.5930063  )
         8           O   tau(   8) = (   0.5000000   0.6221939   1.0425060  )
         9           O   tau(   9) = (   0.0000000   0.0364742   1.1584929  )
        10           O   tau(  10) = (   0.5000000   1.2271853   0.4770194  )
        11           O   tau(  11) = (   0.5000000   1.2271853   2.7940053  )
        12           O   tau(  12) = (   0.5000000   0.6433842   0.0000000  )
        13           O   tau(  13) = (   0.0000000   0.6202753   1.6355124  )
        14           O   tau(  14) = (   0.0000000   0.0364742   2.1125318  )

     number of k points=     4
                       cart. coord. in units 2pi/alat
        k(    1) = (   0.0000000   0.0000000   0.0000000), wk =   0.2222222
        k(    2) = (   0.0000000   0.2637841   0.0000000), wk =   0.4444444
        k(    3) = (   0.3333333   0.0000000   0.0000000), wk =   0.4444444
        k(    4) = (   0.3333333   0.2637841   0.0000000), wk =   0.8888889

     Dense  grid:    42177 G-vectors     FFT dimensions: (  30,  36,  90)

     Estimated max dynamical RAM per process >       7.78 MB

     Estimated total dynamical RAM >     248.99 MB

     Check: negative core charge=   -0.000595

     Initial potential from superposition of free atoms

     starting charge  111.99579, renormalised to  112.00000
     Starting wfcs are   80 randomized atomic wfcs

     total cpu time spent up to now is        0.5 secs

     Self-consistent Calculation

     iteration #  1     ecut=    40.00 Ry     beta= 0.70
     Davidson diagonalization with overlap
     ethr =  1.00E-02,  avg # of iterations =  2.0

     total cpu time spent up to now is        0.9 secs

     total energy              =    -914.78567731 Ry
     Harris-Foulkes estimate   =    -920.60961760 Ry
     estimated scf accuracy    <       7.34209937 Ry

     iteration #  2     ecut=    40.00 Ry     beta= 0.70
     Davidson diagonalization with overlap
     ethr =  6.56E-03,  avg # of iterations =  6.0

     total cpu time spent up to now is        1.5 secs

     total energy              =    -905.16076951 Ry
     Harris-Foulkes estimate   =    -931.73838192 Ry
     estimated scf accuracy    <     112.28480066 Ry

     iteration #  3     ecut=    40.00 Ry     beta= 0.70
     Davidson diagonalization with overlap
     ethr =  6.56E-03,  avg # of iterations =  5.0

     total cpu time spent up to now is        2.1 secs

     total energy              =    -918.89225785 Ry
     Harris-Foulkes estimate   =    -919.52368282 Ry
     estimated scf accuracy    <       2.55403959 Ry

     iteration #  4     ecut=    40.00 Ry     beta= 0.70
     Davidson diagonalization with overlap
     ethr =  2.28E-03,  avg # of iterations =  2.5

     total cpu time spent up to now is        2.4 secs

     total energy              =    -918.86740269 Ry
     Harris-Foulkes estimate   =    -919.07105468 Ry
     estimated scf accuracy    <       1.12753765 Ry

     iteration #  5     ecut=    40.00 Ry     beta= 0.70
     Davidson diagonalization with overlap
     ethr =  1.01E-03,  avg # of iterations =  3.0

     total cpu time spent up to now is        2.6 secs

     total energy              =    -918.88696622 Ry
     Harris-Foulkes estimate   =    -918.95851081 Ry
     estimated scf accuracy    <       0.33190480 Ry

     iteration #  6     ecut=    40.00 Ry     beta= 0.70
     Davidson diagonalization with overlap
     ethr =  2.96E-04,  avg # of iterations =  4.0

     total cpu time spent up to now is        3.0 secs

     total energy              =    -918.95313345 Ry
     Harris-Foulkes estimate   =    -918.96632772 Ry
     estimated scf accuracy    <       0.03992065 Ry

     iteration #  7     ecut=    40.00 Ry     beta= 0.70
     Davidson diagonalization with overlap
     ethr =  3.56E-05,  avg # of iterations =  5.0

     total cpu time spent up to now is        3.4 secs

     total energy              =    -918.96166121 Ry
     Harris-Foulkes estimate   =    -918.96703976 Ry
     estimated scf accuracy    <       0.03137147 Ry

     iteration #  8     ecut=    40.00 Ry     beta= 0.70
     Davidson diagonalization with overlap
     ethr =  2.80E-05,  avg # of iterations =  1.5

     total cpu time spent up to now is        3.6 secs

     total energy              =    -918.95937292 Ry
     Harris-Foulkes estimate   =    -918.96270285 Ry
     estimated scf accuracy    <       0.01695458 Ry

     iteration #  9     ecut=    40.00 Ry     beta= 0.70
     Davidson diagonalization with overlap
     ethr =  1.51E-05,  avg # of iterations =  4.0

     total cpu time spent up to now is        4.0 secs

     total energy              =    -918.96241635 Ry
     Harris-Foulkes estimate   =    -918.96271519 Ry
     estimated scf accuracy    <       0.00093755 Ry

     iteration # 10     ecut=    40.00 Ry     beta= 0.70
     Davidson diagonalization with overlap
     ethr =  8.37E-07,  avg # of iterations =  4.5

     total cpu time spent up to now is        4.3 secs

     total energy              =    -918.96257870 Ry
     Harris-Foulkes estimate   =    -918.96262771 Ry
     estimated scf accuracy    <       0.00018500 Ry

     iteration # 11     ecut=    40.00 Ry     beta= 0.70
     Davidson diagonalization with overlap
     ethr =  1.65E-07,  avg # of iterations =  3.8

     total cpu time spent up to now is        4.6 secs

     total energy              =    -918.96259315 Ry
     Harris-Foulkes estimate   =    -918.96260000 Ry
     estimated scf accuracy    <       0.00002369 Ry

     iteration # 12     ecut=    40.00 Ry     beta= 0.70
     Davidson diagonalization with overlap
     ethr =  2.12E-08,  avg # of iterations =  4.2

     total cpu time spent up to now is        5.0 secs

     total energy              =    -918.96260100 Ry
     Harris-Foulkes estimate   =    -918.96260196 Ry
     estimated scf accuracy    <       0.00000329 Ry

     iteration # 13     ecut=    40.00 Ry     beta= 0.70
     Davidson diagonalization with overlap
     ethr =  2.94E-09,  avg # of iterations =  3.8

     total cpu time spent up to now is        5.3 secs

     total energy              =    -918.96260121 Ry
     Harris-Foulkes estimate   =    -918.96260137 Ry
     estimated scf accuracy    <       0.00000074 Ry

     iteration # 14     ecut=    40.00 Ry     beta= 0.70
     Davidson diagonalization with overlap
     ethr =  6.58E-10,  avg # of iterations =  4.5

     total cpu time spent up to now is        5.7 secs

     total energy              =    -918.96260141 Ry
     Harris-Foulkes estimate   =    -918.96260141 Ry
     estimated scf accuracy    <       0.00000001 Ry

     iteration # 15     ecut=    40.00 Ry     beta= 0.70
     Davidson diagonalization with overlap
     ethr =  1.18E-11,  avg # of iterations =  5.2

     total cpu time spent up to now is        6.1 secs

     total energy              =    -918.96260141 Ry
     Harris-Foulkes estimate   =    -918.96260141 Ry
     estimated scf accuracy    <       0.00000002 Ry

     iteration # 16     ecut=    40.00 Ry     beta= 0.70
     Davidson diagonalization with overlap
     ethr =  1.18E-11,  avg # of iterations =  3.5

     total cpu time spent up to now is        6.4 secs

     total energy              =    -918.96260141 Ry
     Harris-Foulkes estimate   =    -918.96260141 Ry
     estimated scf accuracy    <          3.2E-10 Ry

     iteration # 17     ecut=    40.00 Ry     beta= 0.70
     Davidson diagonalization with overlap
     ethr =  2.84E-13,  avg # of iterations =  5.0

     total cpu time spent up to now is        6.9 secs

     End of self-consistent calculation

          k = 0.0000 0.0000 0.0000 (  5289 PWs)   bands (ev):

   -61.2290 -61.2115 -61.2017 -61.1924 -35.5443 -35.5322 -35.5207 -35.5197
   -35.4678 -35.4285 -35.3939 -35.3715 -35.3633 -35.3484 -35.3381 -35.3282
   -13.9466 -13.8380 -12.8792 -12.7599 -12.6996 -12.6706 -12.1914 -12.1892
   -12.0276 -12.0229  -0.4335  -0.4053  -0.3405  -0.2265  -0.1225   0.3646
     1.0952   1.2239   1.3708   1.4223   1.6796   1.7168   1.9823   2.0567
     2.1748   2.1874   2.2534   2.3014   2.3283   2.5190   2.5284   2.6389
     2.6747   2.9821   3.1662   3.1976   3.2353   3.4789   3.4850   3.5359

          k = 0.0000 0.2638 0.0000 (  5265 PWs)   bands (ev):

   -61.2049 -61.2019 -61.2009 -61.1863 -35.5331 -35.5312 -35.5219 -35.5201
   -35.4637 -35.4200 -35.3844 -35.3690 -35.3665 -35.3516 -35.3363 -35.3326
   -13.8853 -13.7853 -12.8275 -12.7359 -12.6943 -12.6521 -12.1962 -12.1657
   -11.9994 -11.9722  -0.4863  -0.4634  -0.3734  -0.2498  -0.2273   0.1784
     0.3190   0.5195   0.6561   0.7801   1.3615   1.4201   1.4702   1.9794
     2.0545   2.2129   2.3753   2.4005   2.5892   2.7490   2.8414   2.9578
     3.1710   3.1720   3.2289   3.3315   3.3601   3.6990   3.7408   3.9211

          k = 0.3333 0.0000 0.0000 (  5272 PWs)   bands (ev):

   -61.2097 -61.1955 -61.1931 -61.1901 -35.5276 -35.5270 -35.5251 -35.5207
   -35.4602 -35.4276 -35.4216 -35.4189 -35.3708 -35.3616 -35.3568 -35.3477
   -13.3895 -13.2650 -12.7943 -12.6528 -12.6384 -12.6214 -12.1292 -12.1269
   -12.0738 -12.0542  -0.9187  -0.8576  -0.0978  -0.0628   0.0069   0.4078
     0.5518   0.9755   0.9775   1.2877   1.3237   1.3851   1.7409   1.8738
     1.9183   2.0964   2.1817   2.1939   2.3145   2.3173   2.4453   2.4855
     2.5085   2.8751   3.1960   3.3019   3.3916   3.5819   3.7162   3.7878

          k = 0.3333 0.2638 0.0000 (  5261 PWs)   bands (ev):

   -61.1984 -61.1972 -61.1967 -61.1829 -35.5256 -35.5255 -35.5198 -35.5171
   -35.4631 -35.4339 -35.4284 -35.4180 -35.3702 -35.3634 -35.3554 -35.3477
   -13.3381 -13.2299 -12.7626 -12.6488 -12.6249 -12.6087 -12.1144 -12.0874
   -12.0150 -11.9918  -0.9380  -0.8540  -0.1602  -0.1385  -0.0964   0.2720
     0.2945   0.4709   0.5332   0.7962   0.8490   1.0335   1.4161   1.5055
     1.5499   1.5915   1.7736   1.8300   2.0098   2.4842   2.6783   2.8802
     3.1122   3.1554   3.5813   3.7789   3.7827   3.9474   3.9829   3.9969

     highest occupied level (ev):     3.9969

!    total energy              =    -918.96260141 Ry
     Harris-Foulkes estimate   =    -918.96260141 Ry
     estimated scf accuracy    <          2.7E-11 Ry

     The total energy is the sum of the following terms:

     one-electron contribution =    -581.87366073 Ry
     hartree contribution      =     327.72097032 Ry
     xc contribution           =    -172.93826806 Ry
     ewald contribution        =    -491.74104695 Ry
     Dispersion Correction     =      -0.13059599 Ry

     convergence has been achieved in  17 iterations

     Forces acting on atoms (cartesian axes, Ry/au):

     atom    1 type  1   force =     0.00000000    0.07011883   -0.00938275
     atom    2 type  1   force =     0.00000000   -0.07011883    0.00938275
     atom    3 type  1   force =     0.00000000   -0.07011883   -0.00938275
     atom    4 type  1   force =     0.00000000    0.07011883    0.00938275
     atom    5 type  2   force =     0.00000000   -0.01259772   -0.01774453
     atom    6 type  2   force =     0.00000000    0.01259772    0.01774453
     atom    7 type  2   force =     0.00000000    0.01259772   -0.01774453
     atom    8 type  2   force =     0.00000000   -0.01259772    0.01774453
     atom    9 type  2   force =     0.00000000   -0.06178502   -0.00497128
     atom   10 type  2   force =     0.00000000    0.06178502    0.00497128
     atom   11 type  2   force =     0.00000000    0.06178502   -0.00497128
     atom   12 type  2   force =     0.00000000    0.00102571    0.00000000
     atom   13 type  2   force =     0.00000000   -0.00102571   -0.00000000
     atom   14 type  2   force =     0.00000000   -0.06178502    0.00497128

     Total force =     0.193089     Total SCF correction =     0.000016


     Computing stress (Cartesian axis) and pressure

          total   stress  (Ry/bohr**3)                   (kbar)     P=-1270.20
  -0.00863266   0.00000000   0.00000000      -1269.91      0.00      0.00
   0.00000000  -0.00869219   0.00000000          0.00  -1278.67      0.00
   0.00000000   0.00000000  -0.00857910          0.00      0.00  -1262.03


     BFGS Geometry Optimization

     number of scf cycles    =   1
     number of bfgs steps    =   0

     enthalpy new            =    -918.9626014101 Ry

     new trust radius        =       0.5000000000 bohr
     new conv_thr            =            1.0E-10 Ry

     new unit-cell volume =    989.97003 a.u.^3 (   146.69842 Ang^3 )
     density =      4.11755 g/cm^3

CELL_PARAMETERS (alat=  6.68268247)
   0.929307742   0.000000000   0.000000000
   0.000000000   1.173712447   0.000000000
   0.000000000   0.000000000   3.041223254

ATOMIC_POSITIONS (crystal)
V        0.000000000   0.385609390   0.647937838
V        0.500000047   0.614390704   0.852062302
V        0.500000047   0.614390704   0.147937792
V        0.000000000   0.385609390   0.352062255
O        0.500000047   0.491886077   0.681024850
O        0.000000000   0.508114017   0.818975290
O        0.000000000   0.508114017   0.181024804
O        0.500000047   0.491886077   0.318975243
O        0.000000000   0.026467353   0.354093733
O        0.500000047   0.973532741   0.145906315
O        0.500000047   0.973532741   0.854093779
O        0.500000047   0.509183452   0.000000000
O        0.000000000   0.490816642   0.500000047
O        0.000000000   0.026467353   0.645906362



     Writing output data file v2o5.save/
     NEW-OLD atomic charge density approx. for the potential

     Check: negative core charge=   -0.000306
     extrapolated charge   84.44059, renormalised to  112.00000

     total cpu time spent up to now is        7.5 secs

     Self-consistent Calculation

     iteration #  1     ecut=    40.00 Ry     beta= 0.70
     Davidson diagonalization with overlap
     c_bands:  1 eigenvalues not converged
     c_bands:  2 eigenvalues not converged
     c_bands:  1 eigenvalues not converged
     c_bands:  3 eigenvalues not converged
     ethr =  1.00E-06,  avg # of iterations = 20.0

     total cpu time spent up to now is        9.0 secs

     total energy              =    -733.20615812 Ry
     Harris-Foulkes estimate   =   -1060.71671435 Ry
     estimated scf accuracy    <     201.83890678 Ry

     iteration #  2     ecut=    40.00 Ry     beta= 0.70
     Davidson diagonalization with overlap
     ethr =  1.00E-02,  avg # of iterations =  7.5

     total cpu time spent up to now is       10.0 secs

     total energy              =    -844.12436327 Ry
     Harris-Foulkes estimate   =   -1166.09265398 Ry
     estimated scf accuracy    <     873.59340524 Ry

     iteration #  3     ecut=    40.00 Ry     beta= 0.70
     Davidson diagonalization with overlap
     ethr =  1.00E-02,  avg # of iterations =  8.0

     total cpu time spent up to now is       10.7 secs

     total energy              =    -932.28395161 Ry
     Harris-Foulkes estimate   =    -951.89760461 Ry
     estimated scf accuracy    <      77.29614707 Ry

     iteration #  4     ecut=    40.00 Ry     beta= 0.70
     Davidson diagonalization with overlap
     ethr =  1.00E-02,  avg # of iterations =  3.2

     total cpu time spent up to now is       11.1 secs

     total energy              =    -925.32469963 Ry
     Harris-Foulkes estimate   =    -935.22804899 Ry
     estimated scf accuracy    <      38.29260226 Ry

     iteration #  5     ecut=    40.00 Ry     beta= 0.70
     Davidson diagonalization with overlap
     ethr =  1.00E-02,  avg # of iterations =  2.0

     total cpu time spent up to now is       11.3 secs

     total energy              =    -920.89256304 Ry
     Harris-Foulkes estimate   =    -926.24143626 Ry
     estimated scf accuracy    <      19.09755595 Ry

     iteration #  6     ecut=    40.00 Ry     beta= 0.70
     Davidson diagonalization with overlap
     ethr =  1.00E-02,  avg # of iterations =  2.8

     negative rho (up, down):  2.684E-03 0.000E+00

     total cpu time spent up to now is       11.5 secs

     total energy              =    -920.26377043 Ry
     Harris-Foulkes estimate   =    -921.76566793 Ry
     estimated scf accuracy    <       7.56361683 Ry

     iteration #  7     ecut=    40.00 Ry     beta= 0.70
     Davidson diagonalization with overlap
     ethr =  6.75E-03,  avg # of iterations =  3.2

     negative rho (up, down):  2.532E-03 0.000E+00

     total cpu time spent up to now is       11.8 secs

     total energy              =    -919.92435753 Ry
     Harris-Foulkes estimate   =    -920.67919235 Ry
     estimated scf accuracy    <       3.76196775 Ry

     iteration #  8     ecut=    40.00 Ry     beta= 0.70
     Davidson diagonalization with overlap
     ethr =  3.36E-03,  avg # of iterations =  3.5

     total cpu time spent up to now is       12.1 secs

     total energy              =    -920.81092899 Ry
     Harris-Foulkes estimate   =    -920.45342674 Ry
     estimated scf accuracy    <       0.70668997 Ry

     iteration #  9     ecut=    40.00 Ry     beta= 0.70
     Davidson diagonalization with overlap
     ethr =  6.31E-04,  avg # of iterations =  4.0

     total cpu time spent up to now is       12.4 secs

     total energy              =    -920.53203347 Ry
     Harris-Foulkes estimate   =    -921.05057365 Ry
     estimated scf accuracy    <       2.70955762 Ry

     iteration # 10     ecut=    40.00 Ry     beta= 0.70
     Davidson diagonalization with overlap
     ethr =  6.31E-04,  avg # of iterations =  3.0

     total cpu time spent up to now is       12.7 secs

     total energy              =    -919.91945420 Ry
     Harris-Foulkes estimate   =    -920.59018301 Ry
     estimated scf accuracy    <       1.30692190 Ry

     iteration # 11     ecut=    40.00 Ry     beta= 0.70
     Davidson diagonalization with overlap
     ethr =  6.31E-04,  avg # of iterations =  4.5

     total cpu time spent up to now is       13.2 secs

     total energy              =    -920.44000151 Ry
     Harris-Foulkes estimate   =    -920.55414300 Ry
     estimated scf accuracy    <       1.22973700 Ry

     iteration # 12     ecut=    40.00 Ry     beta= 0.70
     Davidson diagonalization with overlap
     ethr =  6.31E-04,  avg # of iterations =  1.0

     total cpu time spent up to now is       13.4 secs

     total energy              =    -920.38563963 Ry
     Harris-Foulkes estimate   =    -920.44927274 Ry
     estimated scf accuracy    <       0.82235013 Ry

     iteration # 13     ecut=    40.00 Ry     beta= 0.70
     Davidson diagonalization with overlap
     ethr =  6.31E-04,  avg # of iterations =  1.0

     total cpu time spent up to now is       13.6 secs

     total energy              =    -920.29430003 Ry
     Harris-Foulkes estimate   =    -920.39670832 Ry
     estimated scf accuracy    <       0.60906584 Ry

     iteration # 14     ecut=    40.00 Ry     beta= 0.70
     Davidson diagonalization with overlap
     ethr =  5.44E-04,  avg # of iterations =  4.0

     total cpu time spent up to now is       13.9 secs

     total energy              =    -920.37779253 Ry
     Harris-Foulkes estimate   =    -920.38305589 Ry
     estimated scf accuracy    <       0.01297174 Ry

     iteration # 15     ecut=    40.00 Ry     beta= 0.70
     Davidson diagonalization with overlap
     ethr =  1.16E-05,  avg # of iterations =  4.2

     total cpu time spent up to now is       14.4 secs

     total energy              =    -920.38848138 Ry
     Harris-Foulkes estimate   =    -920.39973210 Ry
     estimated scf accuracy    <       0.04887462 Ry

     iteration # 16     ecut=    40.00 Ry     beta= 0.70
     Davidson diagonalization with overlap
     ethr =  1.16E-05,  avg # of iterations =  4.0

     total cpu time spent up to now is       14.8 secs

     total energy              =    -920.38959520 Ry
     Harris-Foulkes estimate   =    -920.39212612 Ry
     estimated scf accuracy    <       0.00468989 Ry

     iteration # 17     ecut=    40.00 Ry     beta= 0.70
     Davidson diagonalization with overlap
     ethr =  4.19E-06,  avg # of iterations =  4.5

     total cpu time spent up to now is       15.3 secs

     total energy              =    -920.39162847 Ry
     Harris-Foulkes estimate   =    -920.39267882 Ry
     estimated scf accuracy    <       0.00908227 Ry

     iteration # 18     ecut=    40.00 Ry     beta= 0.70
     Davidson diagonalization with overlap
     ethr =  4.19E-06,  avg # of iterations =  1.0

     total cpu time spent up to now is       15.4 secs

     total energy              =    -920.39017943 Ry
     Harris-Foulkes estimate   =    -920.39171323 Ry
     estimated scf accuracy    <       0.00594882 Ry

     iteration # 19     ecut=    40.00 Ry     beta= 0.70
     Davidson diagonalization with overlap
     ethr =  4.19E-06,  avg # of iterations =  3.5

     total cpu time spent up to now is       15.8 secs

     total energy              =    -920.39121132 Ry
     Harris-Foulkes estimate   =    -920.39125883 Ry
     estimated scf accuracy    <       0.00009939 Ry

     iteration # 20     ecut=    40.00 Ry     beta= 0.70
     Davidson diagonalization with overlap
     ethr =  8.87E-08,  avg # of iterations =  4.5

     total cpu time spent up to now is       16.3 secs

     total energy              =    -920.39124928 Ry
     Harris-Foulkes estimate   =    -920.39125943 Ry
     estimated scf accuracy    <       0.00008418 Ry

     iteration # 21     ecut=    40.00 Ry     beta= 0.70
     Davidson diagonalization with overlap
     ethr =  7.52E-08,  avg # of iterations =  1.0

     total cpu time spent up to now is       16.5 secs

     total energy              =    -920.39124172 Ry
     Harris-Foulkes estimate   =    -920.39125009 Ry
     estimated scf accuracy    <       0.00005743 Ry

     iteration # 22     ecut=    40.00 Ry     beta= 0.70
     Davidson diagonalization with overlap
     ethr =  5.13E-08,  avg # of iterations =  3.0

     total cpu time spent up to now is       16.7 secs

     total energy              =    -920.39124280 Ry
     Harris-Foulkes estimate   =    -920.39124506 Ry
     estimated scf accuracy    <       0.00001133 Ry

     iteration # 23     ecut=    40.00 Ry     beta= 0.70
     Davidson diagonalization with overlap
     ethr =  1.01E-08,  avg # of iterations =  4.0

     total cpu time spent up to now is       17.0 secs

     total energy              =    -920.39124517 Ry
     Harris-Foulkes estimate   =    -920.39124521 Ry
     estimated scf accuracy    <       0.00000023 Ry

     iteration # 24     ecut=    40.00 Ry     beta= 0.70
     Davidson diagonalization with overlap
     ethr =  2.05E-10,  avg # of iterations =  5.0

     total cpu time spent up to now is       17.5 secs

     total energy              =    -920.39124539 Ry
     Harris-Foulkes estimate   =    -920.39124542 Ry
     estimated scf accuracy    <       0.00000009 Ry

     iteration # 25     ecut=    40.00 Ry     beta= 0.70
     Davidson diagonalization with overlap
     ethr =  8.20E-11,  avg # of iterations =  3.0

     total cpu time spent up to now is       17.7 secs

     total energy              =    -920.39124539 Ry
     Harris-Foulkes estimate   =    -920.39124540 Ry
     estimated scf accuracy    <       0.00000001 Ry

     iteration # 26     ecut=    40.00 Ry     beta= 0.70
     Davidson diagonalization with overlap
     ethr =  9.22E-12,  avg # of iterations =  4.2

     total cpu time spent up to now is       18.2 secs

     total energy              =    -920.39124540 Ry
     Harris-Foulkes estimate   =    -920.39124540 Ry
     estimated scf accuracy    <          3.5E-09 Ry

     iteration # 27     ecut=    40.00 Ry     beta= 0.70
     Davidson diagonalization with overlap
     ethr =  3.14E-12,  avg # of iterations =  2.5

     total cpu time spent up to now is       18.4 secs

     total energy              =    -920.39124540 Ry
     Harris-Foulkes estimate   =    -920.39124540 Ry
     estimated scf accuracy    <          2.2E-09 Ry

     iteration # 28     ecut=    40.00 Ry     beta= 0.70
     Davidson diagonalization with overlap
     ethr =  2.00E-12,  avg # of iterations =  4.0

     total cpu time spent up to now is       18.7 secs

     total energy              =    -920.39124540 Ry
     Harris-Foulkes estimate   =    -920.39124540 Ry
     estimated scf accuracy    <          1.4E-10 Ry

     iteration # 29     ecut=    40.00 Ry     beta= 0.70
     Davidson diagonalization with overlap
     ethr =  1.28E-13,  avg # of iterations =  3.5

     total cpu time spent up to now is       19.0 secs

     End of self-consistent calculation

          k = 0.0000 0.0000 0.0000 (  5289 PWs)   bands (ev):

   -57.1819 -57.1777 -57.1686 -57.1507 -31.6994 -31.6904 -31.6801 -31.6663
   -31.5312 -31.4080 -31.3308 -31.2788 -31.2706 -31.2114 -31.1930 -31.1900
   -11.9135 -11.7282 -10.4858 -10.4654 -10.2070  -9.9679  -9.3049  -9.2847
    -9.0188  -9.0131   1.2752   1.3269   1.4369   1.4943   1.9762   2.5385
     2.9581   3.1350   3.3753   3.3955   3.9562   3.9979   4.2649   4.3054
     4.5093   4.5438   4.5863   4.6099   4.8303   4.8991   4.9778   5.0419
     5.3858   5.5315   5.6113   5.8474   5.8966   5.9135   5.9531   6.1730

          k = 0.0000 0.2840 0.0000 (  5265 PWs)   bands (ev):

   -57.1819 -57.1714 -57.1547 -57.1476 -31.7002 -31.6952 -31.6902 -31.6752
   -31.5288 -31.4042 -31.3279 -31.2776 -31.2709 -31.2118 -31.1954 -31.1882
   -11.8159 -11.6448 -10.4567 -10.4385 -10.1512  -9.9449  -9.2559  -9.1974
    -8.9125  -8.8513   1.2364   1.2673   1.3624   1.4114   1.4763   1.7390
     2.4120   2.4722   2.4723   2.6674   3.5195   3.5604   3.5973   4.2010
     4.2975   4.3550   4.3637   4.9942   5.2043   5.2655   5.4017   5.6294
     5.6664   5.7658   5.8859   5.9504   5.9815   6.1932   6.3565   6.5598

          k = 0.3587 0.0000 0.0000 (  5272 PWs)   bands (ev):

   -57.1757 -57.1586 -57.1514 -57.1474 -31.6830 -31.6779 -31.6745 -31.6621
   -31.5235 -31.4585 -31.4319 -31.4139 -31.2926 -31.2853 -31.2456 -31.2133
   -11.0710 -10.8381 -10.2836 -10.0627  -9.9202  -9.8483  -9.1848  -9.1605
    -9.0623  -9.0544   0.7160   0.9040   1.5297   1.7648   2.1164   2.4266
     2.4417   2.6278   3.0114   3.1025   3.2871   3.2908   3.7819   4.0449
     4.1400   4.3522   4.3540   4.3874   4.9428   5.0341   5.0743   5.1885
     5.3323   5.3918   5.5233   5.7153   5.9877   5.9881   6.0982   6.3223

          k = 0.3587 0.2840 0.0000 (  5261 PWs)   bands (ev):

   -57.1685 -57.1581 -57.1537 -57.1461 -31.6881 -31.6827 -31.6806 -31.6687
   -31.5230 -31.4596 -31.4326 -31.4131 -31.2924 -31.2859 -31.2453 -31.2132
   -10.9876 -10.7774 -10.2565 -10.0572  -9.8793  -9.8343  -9.1027  -9.0458
    -8.9301  -8.8763   0.7083   0.9036   1.4194   1.6218   1.7026   1.7870
     2.1786   2.2303   2.4488   2.5817   2.7293   3.1797   3.3514   3.8055
     3.8057   3.8448   4.0603   4.1230   4.3737   4.8451   4.9852   5.4515
     5.7514   5.7908   6.1446   6.2842   6.2963   6.4704   6.5697   6.6084

     highest occupied level (ev):     6.6084

!    total energy              =    -920.39124540 Ry
     Harris-Foulkes estimate   =    -920.39124540 Ry
     estimated scf accuracy    <          5.8E-11 Ry

     The total energy is the sum of the following terms:

     one-electron contribution =    -528.15719518 Ry
     hartree contribution      =     314.35386951 Ry
     xc contribution           =    -175.80487774 Ry
     ewald contribution        =    -530.62269050 Ry
     Dispersion Correction     =      -0.16035150 Ry

     convergence has been achieved in  29 iterations

     Forces acting on atoms (cartesian axes, Ry/au):

     atom    1 type  1   force =     0.00000000    0.15195452    0.05000594
     atom    2 type  1   force =     0.00000000   -0.15195452   -0.05000594
     atom    3 type  1   force =     0.00000000   -0.15195452    0.05000594
     atom    4 type  1   force =     0.00000000    0.15195452   -0.05000594
     atom    5 type  2   force =     0.00000000    0.03730726   -0.03917537
     atom    6 type  2   force =    -0.00000000   -0.03730726    0.03917537
     atom    7 type  2   force =    -0.00000000   -0.03730726   -0.03917537
     atom    8 type  2   force =     0.00000000    0.03730726    0.03917537
     atom    9 type  2   force =    -0.00000000   -0.28547067    0.00576842
     atom   10 type  2   force =     0.00000000    0.28547067   -0.00576842
     atom   11 type  2   force =     0.00000000    0.28547067    0.00576842
     atom   12 type  2   force =    -0.00000000   -0.09483762    0.00000000
     atom   13 type  2   force =     0.00000000    0.09483762    0.00000000
     atom   14 type  2   force =     0.00000000   -0.28547067   -0.00576842

     Total force =     0.676879     Total SCF correction =     0.000025


     Computing stress (Cartesian axis) and pressure

          total   stress  (Ry/bohr**3)                   (kbar)     P= -303.43
  -0.00209305   0.00000000   0.00000000       -307.90      0.00      0.00
   0.00000000  -0.00219777   0.00000000          0.00   -323.30      0.00
   0.00000000   0.00000000  -0.00189720          0.00      0.00   -279.09


     number of scf cycles    =   2
     number of bfgs steps    =   1

     enthalpy old            =    -918.9626014101 Ry
     enthalpy new            =    -920.3912453975 Ry

     CASE: enthalpy_new < enthalpy_old

     new trust radius        =       0.3098250035 bohr
     new conv_thr            =            1.0E-10 Ry

     new unit-cell volume =    884.58583 a.u.^3 (   131.08209 Ang^3 )
     density =      4.60809 g/cm^3

CELL_PARAMETERS (alat=  6.68268247)
   0.894251932   0.000000000   0.000000000
   0.000000000   1.125909142   0.000000000
   0.000000000   0.000000000   2.943908222

ATOMIC_POSITIONS (crystal)
V        0.000000000   0.406162466   0.650711049
V        0.500000071   0.593837676   0.849289164
V        0.500000071   0.593837676   0.150710979
V        0.000000000   0.406162466   0.349289092
O        0.500000071   0.497306714   0.678974118
O       -0.000000000   0.502693428   0.821026094
O       -0.000000000   0.502693428   0.178974048
O        0.500000071   0.497306714   0.321026023
O       -0.000000000  -0.013023463   0.354432522
O        0.500000071   1.013023605   0.145567550
O        0.500000071   1.013023605   0.854432592
O        0.500000071   0.495793307   0.000000000
O        0.000000000   0.504206835   0.500000071
O        0.000000000  -0.013023463   0.645567621



     Writing output data file v2o5.save/
     NEW-OLD atomic charge density approx. for the potential

     Check: negative core charge=   -0.000207
     extrapolated charge   98.65750, renormalised to  112.00000

     total cpu time spent up to now is       19.9 secs

     Self-consistent Calculation

     iteration #  1     ecut=    40.00 Ry     beta= 0.70
     Davidson diagonalization with overlap
     c_bands:  1 eigenvalues not converged
     c_bands:  2 eigenvalues not converged
     ethr =  1.00E-06,  avg # of iterations = 19.2

     total cpu time spent up to now is       22.4 secs

     total energy              =    -813.88462666 Ry
     Harris-Foulkes estimate   =    -978.47493033 Ry
     estimated scf accuracy    <     112.97129046 Ry

     iteration #  2     ecut=    40.00 Ry     beta= 0.70
     Davidson diagonalization with overlap
     ethr =  1.00E-02,  avg # of iterations =  6.5

     total cpu time spent up to now is       23.6 secs

     total energy              =    -866.89849377 Ry
     Harris-Foulkes estimate   =   -1073.38075522 Ry
     estimated scf accuracy    <     596.57450290 Ry

     iteration #  3     ecut=    40.00 Ry     beta= 0.70
     Davidson diagonalization with overlap
     ethr =  1.00E-02,  avg # of iterations =  6.8

     total cpu time spent up to now is       24.5 secs

     total energy              =    -929.03949222 Ry
     Harris-Foulkes estimate   =    -941.55005872 Ry
     estimated scf accuracy    <      55.93869385 Ry

     iteration #  4     ecut=    40.00 Ry     beta= 0.70
     Davidson diagonalization with overlap
     ethr =  1.00E-02,  avg # of iterations =  3.8

     total cpu time spent up to now is       25.0 secs

     total energy              =    -925.48464098 Ry
     Harris-Foulkes estimate   =    -931.32620791 Ry
     estimated scf accuracy    <      29.81110594 Ry

     iteration #  5     ecut=    40.00 Ry     beta= 0.70
     Davidson diagonalization with overlap
     ethr =  1.00E-02,  avg # of iterations =  1.0

     total cpu time spent up to now is       25.3 secs

     total energy              =    -921.84174116 Ry
     Harris-Foulkes estimate   =    -925.91648162 Ry
     estimated scf accuracy    <      18.39230935 Ry

     iteration #  6     ecut=    40.00 Ry     beta= 0.70
     Davidson diagonalization with overlap
     ethr =  1.00E-02,  avg # of iterations =  1.5

     total cpu time spent up to now is       25.5 secs

     total energy              =    -920.80684815 Ry
     Harris-Foulkes estimate   =    -922.35434177 Ry
     estimated scf accuracy    <       9.71116417 Ry

     iteration #  7     ecut=    40.00 Ry     beta= 0.70
     Davidson diagonalization with overlap
     ethr =  8.67E-03,  avg # of iterations =  2.5

     negative rho (up, down):  7.912E-04 0.000E+00

     total cpu time spent up to now is       25.9 secs

     total energy              =    -918.84001715 Ry
     Harris-Foulkes estimate   =    -921.09856285 Ry
     estimated scf accuracy    <       6.47904292 Ry

     iteration #  8     ecut=    40.00 Ry     beta= 0.70
     Davidson diagonalization with overlap
     ethr =  5.78E-03,  avg # of iterations =  4.8

     total cpu time spent up to now is       26.5 secs

     total energy              =    -920.47505216 Ry
     Harris-Foulkes estimate   =    -920.80805133 Ry
     estimated scf accuracy    <       1.96010370 Ry

     iteration #  9     ecut=    40.00 Ry     beta= 0.70
     Davidson diagonalization with overlap
     ethr =  1.75E-03,  avg # of iterations =  4.0

     negative rho (up, down):  2.338E-03 0.000E+00

     total cpu time spent up to now is       26.9 secs

     total energy              =    -920.86293489 Ry
     Harris-Foulkes estimate   =    -920.57223144 Ry
     estimated scf accuracy    <       0.69779390 Ry

     iteration # 10     ecut=    40.00 Ry     beta= 0.70
     Davidson diagonalization with overlap
     ethr =  6.23E-04,  avg # of iterations =  5.8

     negative rho (up, down):  1.946E-02 0.000E+00

     total cpu time spent up to now is       27.5 secs

     total energy              =    -922.60618892 Ry
     Harris-Foulkes estimate   =    -921.03261871 Ry
     estimated scf accuracy    <       3.44891826 Ry

     iteration # 11     ecut=    40.00 Ry     beta= 0.70
     Davidson diagonalization with overlap
     ethr =  6.23E-04,  avg # of iterations =  5.2

     total cpu time spent up to now is       28.3 secs

     total energy              =    -915.82065123 Ry
     Harris-Foulkes estimate   =    -925.12377448 Ry
     estimated scf accuracy    <      52.09622577 Ry

     iteration # 12     ecut=    40.00 Ry     beta= 0.70
     Davidson diagonalization with overlap
     ethr =  6.23E-04,  avg # of iterations =  7.0

     total cpu time spent up to now is       29.1 secs

     total energy              =    -920.53840195 Ry
     Harris-Foulkes estimate   =    -920.63103672 Ry
     estimated scf accuracy    <       0.41469646 Ry

     iteration # 13     ecut=    40.00 Ry     beta= 0.70
     Davidson diagonalization with overlap
     ethr =  3.70E-04,  avg # of iterations =  4.2

     total cpu time spent up to now is       29.6 secs

     total energy              =    -920.62934293 Ry
     Harris-Foulkes estimate   =    -920.63639590 Ry
     estimated scf accuracy    <       0.71129893 Ry

     iteration # 14     ecut=    40.00 Ry     beta= 0.70
     Davidson diagonalization with overlap
     ethr =  3.70E-04,  avg # of iterations =  1.0

     total cpu time spent up to now is       29.9 secs

     total energy              =    -920.61920271 Ry
     Harris-Foulkes estimate   =    -920.63530150 Ry
     estimated scf accuracy    <       0.67965686 Ry

     iteration # 15     ecut=    40.00 Ry     beta= 0.70
     Davidson diagonalization with overlap
     ethr =  3.70E-04,  avg # of iterations =  1.0

     total cpu time spent up to now is       30.1 secs

     total energy              =    -920.57082980 Ry
     Harris-Foulkes estimate   =    -920.62346367 Ry
     estimated scf accuracy    <       0.63982586 Ry

     iteration # 16     ecut=    40.00 Ry     beta= 0.70
     Davidson diagonalization with overlap
     ethr =  3.70E-04,  avg # of iterations =  1.2

     total cpu time spent up to now is       30.4 secs

     total energy              =    -920.56554355 Ry
     Harris-Foulkes estimate   =    -920.57597804 Ry
     estimated scf accuracy    <       0.48903901 Ry

     iteration # 17     ecut=    40.00 Ry     beta= 0.70
     Davidson diagonalization with overlap
     ethr =  3.70E-04,  avg # of iterations =  1.0

     total cpu time spent up to now is       30.7 secs

     total energy              =    -920.52328042 Ry
     Harris-Foulkes estimate   =    -920.56795709 Ry
     estimated scf accuracy    <       0.45204349 Ry

     iteration # 18     ecut=    40.00 Ry     beta= 0.70
     Davidson diagonalization with overlap
     ethr =  3.70E-04,  avg # of iterations =  1.0

     total cpu time spent up to now is       31.0 secs

     total energy              =    -920.51655918 Ry
     Harris-Foulkes estimate   =    -920.52869563 Ry
     estimated scf accuracy    <       0.30538817 Ry

     iteration # 19     ecut=    40.00 Ry     beta= 0.70
     Davidson diagonalization with overlap
     ethr =  2.73E-04,  avg # of iterations =  1.0

     total cpu time spent up to now is       31.2 secs

     total energy              =    -920.43855222 Ry
     Harris-Foulkes estimate   =    -920.52113812 Ry
     estimated scf accuracy    <       0.26542812 Ry

     iteration # 20     ecut=    40.00 Ry     beta= 0.70
     Davidson diagonalization with overlap
     ethr =  2.37E-04,  avg # of iterations =  5.0

     total cpu time spent up to now is       31.8 secs

     total energy              =    -920.55100665 Ry
     Harris-Foulkes estimate   =    -920.53791510 Ry
     estimated scf accuracy    <       0.17140411 Ry

     iteration # 21     ecut=    40.00 Ry     beta= 0.70
     Davidson diagonalization with overlap
     ethr =  1.53E-04,  avg # of iterations =  1.5

     total cpu time spent up to now is       32.1 secs

     total energy              =    -920.53061082 Ry
     Harris-Foulkes estimate   =    -920.55358413 Ry
     estimated scf accuracy    <       0.20942618 Ry

     iteration # 22     ecut=    40.00 Ry     beta= 0.70
     Davidson diagonalization with overlap
     ethr =  1.53E-04,  avg # of iterations =  1.0

     total cpu time spent up to now is       32.4 secs

     total energy              =    -920.51675081 Ry
     Harris-Foulkes estimate   =    -920.53232375 Ry
     estimated scf accuracy    <       0.16246006 Ry

     iteration # 23     ecut=    40.00 Ry     beta= 0.70
     Davidson diagonalization with overlap
     ethr =  1.45E-04,  avg # of iterations =  2.8

     total cpu time spent up to now is       32.7 secs

     total energy              =    -920.51682090 Ry
     Harris-Foulkes estimate   =    -920.52005446 Ry
     estimated scf accuracy    <       0.08413478 Ry

     iteration # 24     ecut=    40.00 Ry     beta= 0.70
     Davidson diagonalization with overlap
     ethr =  7.51E-05,  avg # of iterations =  3.8

     total cpu time spent up to now is       33.1 secs

     total energy              =    -920.51688808 Ry
     Harris-Foulkes estimate   =    -920.51979038 Ry
     estimated scf accuracy    <       0.04803885 Ry

     iteration # 25     ecut=    40.00 Ry     beta= 0.70
     Davidson diagonalization with overlap
     ethr =  4.29E-05,  avg # of iterations =  3.0

     total cpu time spent up to now is       33.4 secs

     total energy              =    -920.51997627 Ry
     Harris-Foulkes estimate   =    -920.51931186 Ry
     estimated scf accuracy    <       0.01926507 Ry

     iteration # 26     ecut=    40.00 Ry     beta= 0.70
     Davidson diagonalization with overlap
     ethr =  1.72E-05,  avg # of iterations =  3.2

     total cpu time spent up to now is       33.8 secs

     total energy              =    -920.51912236 Ry
     Harris-Foulkes estimate   =    -920.52057886 Ry
     estimated scf accuracy    <       0.01691812 Ry

     iteration # 27     ecut=    40.00 Ry     beta= 0.70
     Davidson diagonalization with overlap
     ethr =  1.51E-05,  avg # of iterations =  3.2

     total cpu time spent up to now is       34.1 secs

     total energy              =    -920.51850706 Ry
     Harris-Foulkes estimate   =    -920.51979432 Ry
     estimated scf accuracy    <       0.00801197 Ry

     iteration # 28     ecut=    40.00 Ry     beta= 0.70
     Davidson diagonalization with overlap
     ethr =  7.15E-06,  avg # of iterations =  4.0

     total cpu time spent up to now is       34.6 secs

     total energy              =    -920.51971476 Ry
     Harris-Foulkes estimate   =    -920.51978847 Ry
     estimated scf accuracy    <       0.00043605 Ry

     iteration # 29     ecut=    40.00 Ry     beta= 0.70
     Davidson diagonalization with overlap
     ethr =  3.89E-07,  avg # of iterations =  5.2

     total cpu time spent up to now is       35.2 secs

     total energy              =    -920.51988275 Ry
     Harris-Foulkes estimate   =    -920.51992248 Ry
     estimated scf accuracy    <       0.00067604 Ry

     iteration # 30     ecut=    40.00 Ry     beta= 0.70
     Davidson diagonalization with overlap
     ethr =  3.89E-07,  avg # of iterations =  1.0

     total cpu time spent up to now is       35.5 secs

     total energy              =    -920.51975873 Ry
     Harris-Foulkes estimate   =    -920.51988529 Ry
     estimated scf accuracy    <       0.00057775 Ry

     iteration # 31     ecut=    40.00 Ry     beta= 0.70
     Davidson diagonalization with overlap
     ethr =  3.89E-07,  avg # of iterations =  3.0

     total cpu time spent up to now is       35.9 secs

     total energy              =    -920.51977120 Ry
     Harris-Foulkes estimate   =    -920.51979645 Ry
     estimated scf accuracy    <       0.00010618 Ry

     iteration # 32     ecut=    40.00 Ry     beta= 0.70
     Davidson diagonalization with overlap
     ethr =  9.48E-08,  avg # of iterations =  5.2

     total cpu time spent up to now is       36.4 secs

     total energy              =    -920.51980397 Ry
     Harris-Foulkes estimate   =    -920.51980508 Ry
     estimated scf accuracy    <       0.00009613 Ry

     iteration # 33     ecut=    40.00 Ry     beta= 0.70
     Davidson diagonalization with overlap
     ethr =  8.58E-08,  avg # of iterations =  1.5

     total cpu time spent up to now is       36.7 secs

     total energy              =    -920.51978303 Ry
     Harris-Foulkes estimate   =    -920.51980587 Ry
     estimated scf accuracy    <       0.00009148 Ry

     iteration # 34     ecut=    40.00 Ry     beta= 0.70
     Davidson diagonalization with overlap
     ethr =  8.17E-08,  avg # of iterations =  4.0

     total cpu time spent up to now is       37.2 secs

     total energy              =    -920.51979149 Ry
     Harris-Foulkes estimate   =    -920.51979530 Ry
     estimated scf accuracy    <       0.00002834 Ry

     iteration # 35     ecut=    40.00 Ry     beta= 0.70
     Davidson diagonalization with overlap
     ethr =  2.53E-08,  avg # of iterations =  2.2

     total cpu time spent up to now is       37.5 secs

     total energy              =    -920.51978847 Ry
     Harris-Foulkes estimate   =    -920.51979261 Ry
     estimated scf accuracy    <       0.00001916 Ry

     iteration # 36     ecut=    40.00 Ry     beta= 0.70
     Davidson diagonalization with overlap
     ethr =  1.71E-08,  avg # of iterations =  4.0

     total cpu time spent up to now is       38.0 secs

     total energy              =    -920.51979193 Ry
     Harris-Foulkes estimate   =    -920.51979198 Ry
     estimated scf accuracy    <       0.00000039 Ry

     iteration # 37     ecut=    40.00 Ry     beta= 0.70
     Davidson diagonalization with overlap
     ethr =  3.49E-10,  avg # of iterations =  4.8

     total cpu time spent up to now is       38.5 secs

     total energy              =    -920.51979198 Ry
     Harris-Foulkes estimate   =    -920.51979202 Ry
     estimated scf accuracy    <       0.00000023 Ry

     iteration # 38     ecut=    40.00 Ry     beta= 0.70
     Davidson diagonalization with overlap
     ethr =  2.07E-10,  avg # of iterations =  4.0

     total cpu time spent up to now is       38.9 secs

     total energy              =    -920.51979200 Ry
     Harris-Foulkes estimate   =    -920.51979200 Ry
     estimated scf accuracy    <       0.00000003 Ry

     iteration # 39     ecut=    40.00 Ry     beta= 0.70
     Davidson diagonalization with overlap
     ethr =  2.48E-11,  avg # of iterations =  4.5

     total cpu time spent up to now is       39.5 secs

     total energy              =    -920.51979201 Ry
     Harris-Foulkes estimate   =    -920.51979201 Ry
     estimated scf accuracy    <          8.0E-10 Ry

     iteration # 40     ecut=    40.00 Ry     beta= 0.70
     Davidson diagonalization with overlap
     ethr =  7.12E-13,  avg # of iterations =  5.0

     total cpu time spent up to now is       40.1 secs

     total energy              =    -920.51979201 Ry
     Harris-Foulkes estimate   =    -920.51979201 Ry
     estimated scf accuracy    <          1.2E-10 Ry

     iteration # 41     ecut=    40.00 Ry     beta= 0.70
     Davidson diagonalization with overlap
     ethr =  1.08E-13,  avg # of iterations =  4.5

     total cpu time spent up to now is       40.7 secs

     End of self-consistent calculation

          k = 0.0000 0.0000 0.0000 (  5289 PWs)   bands (ev):

   -55.6752 -55.6629 -55.5897 -55.5841 -30.2576 -30.1192 -30.0530 -30.0446
   -29.8886 -29.8734 -29.8661 -29.7398 -29.4754 -29.4616 -29.4513 -29.4392
   -11.3180 -11.1091 -10.1782 -10.1496  -8.8407  -8.5820  -7.3423  -7.3077
    -6.9136  -6.8853   1.6824   1.8109   2.2423   2.3269   2.9303   3.5628
     3.9981   4.0155   4.7354   5.0150   5.3967   5.5034   5.5460   5.5811
     5.9027   6.1047   6.2609   6.2938   6.9353   7.1137   7.7304   7.7546
     7.7579   7.7585   7.7702   7.8092   8.1082   8.5734   8.6463   8.7574

          k = 0.0000 0.2961 0.0000 (  5265 PWs)   bands (ev):

   -55.6668 -55.6595 -55.5917 -55.5773 -30.2556 -30.1190 -30.0527 -30.0438
   -29.8889 -29.8735 -29.8657 -29.7411 -29.4856 -29.4705 -29.4641 -29.4524
   -11.2301 -11.0351 -10.1594 -10.1284  -8.7727  -8.5508  -7.2023  -7.1141
    -6.6712  -6.5708   1.6757   1.7942   2.1968   2.2791   2.5354   2.8650
     3.6585   3.8377   3.9555   4.0620   5.0574   5.1061   5.2004   5.5118
     5.5733   5.8406   6.0198   6.1919   6.5038   6.7008   6.8019   7.3759
     7.9766   8.0015   8.0981   8.2185   8.3309   8.4851   8.7612   9.1173

          k = 0.3728 0.0000 0.0000 (  5272 PWs)   bands (ev):

   -55.6449 -55.6281 -55.5928 -55.5897 -30.3320 -30.2992 -30.2711 -30.2693
   -29.9398 -29.8721 -29.8491 -29.7437 -29.4594 -29.4506 -29.4502 -29.4423
   -10.1632  -9.8910  -9.4001  -9.2356  -8.5780  -8.4089  -7.1471  -7.1055
    -6.9383  -6.9224   1.0135   1.2059   1.9188   2.1118   2.8211   3.0226
     3.1466   3.1655   3.7157   4.3560   4.3840   4.9829   5.2983   5.4006
     5.5282   6.0400   6.1767   6.6468   6.9795   7.0079   7.0082   7.1728
     7.8574   7.8838   7.9268   7.9414   8.0779   8.2501   8.3697   8.6837

          k = 0.3728 0.2961 0.0000 (  5261 PWs)   bands (ev):

   -55.6382 -55.6283 -55.5951 -55.5900 -30.3309 -30.2986 -30.2702 -30.2693
   -29.9397 -29.8729 -29.8489 -29.7444 -29.4708 -29.4629 -29.4606 -29.4545
   -10.0901  -9.8375  -9.3896  -9.2269  -8.5169  -8.3868  -6.9525  -6.8689
    -6.6799  -6.5923   1.0049   1.2003   1.8981   2.0515   2.5882   2.6721
     2.7889   2.8486   3.3300   3.9731   4.2068   4.4053   4.4936   4.9775
     4.9865   5.4429   5.6751   5.8183   6.3458   6.5119   6.7701   7.2613
     7.7786   8.0708   8.2314   8.2702   8.4787   8.6634   8.7197   9.0228

     highest occupied level (ev):     9.1173

!    total energy              =    -920.51979201 Ry
     Harris-Foulkes estimate   =    -920.51979201 Ry
     estimated scf accuracy    <          4.5E-12 Ry

     The total energy is the sum of the following terms:

     one-electron contribution =    -472.11303897 Ry
     hartree contribution      =     292.87823241 Ry
     xc contribution           =    -176.27497453 Ry
     ewald contribution        =    -564.83719837 Ry
     Dispersion Correction     =      -0.17281255 Ry

     convergence has been achieved in  41 iterations

     Forces acting on atoms (cartesian axes, Ry/au):

     atom    1 type  1   force =    -0.00000000   -0.28926682   -0.06972695
     atom    2 type  1   force =    -0.00000000    0.28926682    0.06972695
     atom    3 type  1   force =     0.00000000    0.28926682   -0.06972695
     atom    4 type  1   force =     0.00000000   -0.28926682    0.06972695
     atom    5 type  2   force =    -0.00000000    0.06756747   -0.04592475
     atom    6 type  2   force =     0.00000000   -0.06756747    0.04592475
     atom    7 type  2   force =     0.00000000   -0.06756747   -0.04592475
     atom    8 type  2   force =     0.00000000    0.06756747    0.04592475
     atom    9 type  2   force =     0.00000000    0.10778130    0.00286044
     atom   10 type  2   force =    -0.00000000   -0.10778130   -0.00286044
     atom   11 type  2   force =     0.00000000   -0.10778130    0.00286044
     atom   12 type  2   force =     0.00000000   -0.08111243    0.00000000
     atom   13 type  2   force =     0.00000000    0.08111243    0.00000000
     atom   14 type  2   force =     0.00000000    0.10778130   -0.00286044

     Total force =     0.663705     Total SCF correction =     0.000010


     Computing stress (Cartesian axis) and pressure

          total   stress  (Ry/bohr**3)                   (kbar)     P=  106.80
   0.00397301   0.00000000   0.00000000        584.45      0.00      0.00
   0.00000000  -0.00418612   0.00000000          0.00   -615.80      0.00
   0.00000000   0.00000000   0.00239116          0.00      0.00    351.75


     number of scf cycles    =   3
     number of bfgs steps    =   2

     enthalpy old            =    -920.3912453975 Ry
     enthalpy new            =    -920.5197920076 Ry

     CASE: enthalpy_new < enthalpy_old

     new trust radius        =       0.5469336893 bohr
     new conv_thr            =            1.0E-10 Ry

     new unit-cell volume =    843.11053 a.u.^3 (   124.93609 Ang^3 )
     density =      4.83477 g/cm^3

CELL_PARAMETERS (alat=  6.68268247)
   0.925624951   0.000000000   0.000000000
   0.000000000   1.022385857   0.000000000
   0.000000000   0.000000000   2.985259936

ATOMIC_POSITIONS (crystal)
V        0.000000000   0.397362179   0.650354849
V        0.500000083   0.602637986   0.849645398
V        0.500000083   0.602637986   0.150354767
V        0.000000000   0.397362179   0.349645315
O        0.500000083   0.505284604   0.676488678
O       -0.000000000   0.494715561   0.823511568
O       -0.000000000   0.494715561   0.176488597
O        0.500000083   0.505284604   0.323511486
O       -0.000000000  -0.028222510   0.354706140
O        0.500000083   1.028222675   0.145293944
O        0.500000083   1.028222675   0.854706221
O        0.500000083   0.482211653   0.000000000
O        0.000000000   0.517788512   0.500000083
O        0.000000000  -0.028222510   0.645294026



     Writing output data file v2o5.save/
     NEW-OLD atomic charge density approx. for the potential

     Check: negative core charge=   -0.000201
     extrapolated charge  106.49057, renormalised to  112.00000

     total cpu time spent up to now is       41.7 secs

     Self-consistent Calculation

     iteration #  1     ecut=    40.00 Ry     beta= 0.70
     Davidson diagonalization with overlap
     c_bands:  1 eigenvalues not converged
     ethr =  1.00E-06,  avg # of iterations = 18.5

     total cpu time spent up to now is       44.1 secs

     total energy              =    -908.38537577 Ry
     Harris-Foulkes estimate   =    -939.60938056 Ry
     estimated scf accuracy    <      12.55834916 Ry

     iteration #  2     ecut=    40.00 Ry     beta= 0.70
     Davidson diagonalization with overlap
     ethr =  1.00E-02,  avg # of iterations =  4.2

     total cpu time spent up to now is       44.9 secs

     total energy              =    -920.36617203 Ry
     Harris-Foulkes estimate   =    -937.77887607 Ry
     estimated scf accuracy    <      44.22621615 Ry

     iteration #  3     ecut=    40.00 Ry     beta= 0.70
     Davidson diagonalization with overlap
     ethr =  1.00E-02,  avg # of iterations =  3.0

     total cpu time spent up to now is       45.4 secs

     total energy              =    -921.02184278 Ry
     Harris-Foulkes estimate   =    -923.11222020 Ry
     estimated scf accuracy    <      10.52967775 Ry

     iteration #  4     ecut=    40.00 Ry     beta= 0.70
     Davidson diagonalization with overlap
     ethr =  9.40E-03,  avg # of iterations =  1.0

     total cpu time spent up to now is       45.6 secs

     total energy              =    -919.44602083 Ry
     Harris-Foulkes estimate   =    -921.28331499 Ry
     estimated scf accuracy    <       6.64871949 Ry

     iteration #  5     ecut=    40.00 Ry     beta= 0.70
     Davidson diagonalization with overlap
     ethr =  5.94E-03,  avg # of iterations =  4.5

     total cpu time spent up to now is       46.2 secs

     total energy              =    -920.84059073 Ry
     Harris-Foulkes estimate   =    -920.69927848 Ry
     estimated scf accuracy    <       0.28285086 Ry

     iteration #  6     ecut=    40.00 Ry     beta= 0.70
     Davidson diagonalization with overlap
     ethr =  2.53E-04,  avg # of iterations =  5.0

     total cpu time spent up to now is       46.9 secs

     total energy              =    -920.88175836 Ry
     Harris-Foulkes estimate   =    -921.01700857 Ry
     estimated scf accuracy    <       1.27884425 Ry

     iteration #  7     ecut=    40.00 Ry     beta= 0.70
     Davidson diagonalization with overlap
     ethr =  2.53E-04,  avg # of iterations =  1.0

     total cpu time spent up to now is       47.2 secs

     total energy              =    -920.61500024 Ry
     Harris-Foulkes estimate   =    -920.88828353 Ry
     estimated scf accuracy    <       0.95386151 Ry

     iteration #  8     ecut=    40.00 Ry     beta= 0.70
     Davidson diagonalization with overlap
     ethr =  2.53E-04,  avg # of iterations =  4.0

     total cpu time spent up to now is       47.8 secs

     total energy              =    -920.74434172 Ry
     Harris-Foulkes estimate   =    -920.74498107 Ry
     estimated scf accuracy    <       0.01157992 Ry

     iteration #  9     ecut=    40.00 Ry     beta= 0.70
     Davidson diagonalization with overlap
     ethr =  1.03E-05,  avg # of iterations =  2.5

     total cpu time spent up to now is       48.1 secs

     total energy              =    -920.74309680 Ry
     Harris-Foulkes estimate   =    -920.74497278 Ry
     estimated scf accuracy    <       0.00982198 Ry

     iteration # 10     ecut=    40.00 Ry     beta= 0.70
     Davidson diagonalization with overlap
     ethr =  8.77E-06,  avg # of iterations =  3.2

     total cpu time spent up to now is       48.5 secs

     total energy              =    -920.73991548 Ry
     Harris-Foulkes estimate   =    -920.74393844 Ry
     estimated scf accuracy    <       0.00838722 Ry

     iteration # 11     ecut=    40.00 Ry     beta= 0.70
     Davidson diagonalization with overlap
     ethr =  7.49E-06,  avg # of iterations =  4.0

     total cpu time spent up to now is       49.1 secs

     total energy              =    -920.74119001 Ry
     Harris-Foulkes estimate   =    -920.74275763 Ry
     estimated scf accuracy    <       0.00296447 Ry

     iteration # 12     ecut=    40.00 Ry     beta= 0.70
     Davidson diagonalization with overlap
     ethr =  2.65E-06,  avg # of iterations =  4.2

     total cpu time spent up to now is       49.8 secs

     total energy              =    -920.74209610 Ry
     Harris-Foulkes estimate   =    -920.74283761 Ry
     estimated scf accuracy    <       0.00331869 Ry

     iteration # 13     ecut=    40.00 Ry     beta= 0.70
     Davidson diagonalization with overlap
     ethr =  2.65E-06,  avg # of iterations =  3.5

     total cpu time spent up to now is       50.1 secs

     total energy              =    -920.74200371 Ry
     Harris-Foulkes estimate   =    -920.74223530 Ry
     estimated scf accuracy    <       0.00102415 Ry

     iteration # 14     ecut=    40.00 Ry     beta= 0.70
     Davidson diagonalization with overlap
     ethr =  9.14E-07,  avg # of iterations =  4.0

     total cpu time spent up to now is       50.7 secs

     total energy              =    -920.74229119 Ry
     Harris-Foulkes estimate   =    -920.74230109 Ry
     estimated scf accuracy    <       0.00003634 Ry

     iteration # 15     ecut=    40.00 Ry     beta= 0.70
     Davidson diagonalization with overlap
     ethr =  3.24E-08,  avg # of iterations =  4.2

     total cpu time spent up to now is       51.1 secs

     total energy              =    -920.74229428 Ry
     Harris-Foulkes estimate   =    -920.74229714 Ry
     estimated scf accuracy    <       0.00001592 Ry

     iteration # 16     ecut=    40.00 Ry     beta= 0.70
     Davidson diagonalization with overlap
     ethr =  1.42E-08,  avg # of iterations =  4.0

     total cpu time spent up to now is       51.6 secs

     total energy              =    -920.74229653 Ry
     Harris-Foulkes estimate   =    -920.74229710 Ry
     estimated scf accuracy    <       0.00000162 Ry

     iteration # 17     ecut=    40.00 Ry     beta= 0.70
     Davidson diagonalization with overlap
     ethr =  1.44E-09,  avg # of iterations =  4.0

     total cpu time spent up to now is       52.2 secs

     total energy              =    -920.74229700 Ry
     Harris-Foulkes estimate   =    -920.74229721 Ry
     estimated scf accuracy    <       0.00000049 Ry

     iteration # 18     ecut=    40.00 Ry     beta= 0.70
     Davidson diagonalization with overlap
     ethr =  4.36E-10,  avg # of iterations =  4.2

     total cpu time spent up to now is       52.8 secs

     total energy              =    -920.74229715 Ry
     Harris-Foulkes estimate   =    -920.74229716 Ry
     estimated scf accuracy    <       0.00000019 Ry

     iteration # 19     ecut=    40.00 Ry     beta= 0.70
     Davidson diagonalization with overlap
     ethr =  1.68E-10,  avg # of iterations =  1.0

     total cpu time spent up to now is       53.1 secs

     total energy              =    -920.74229712 Ry
     Harris-Foulkes estimate   =    -920.74229715 Ry
     estimated scf accuracy    <       0.00000015 Ry

     iteration # 20     ecut=    40.00 Ry     beta= 0.70
     Davidson diagonalization with overlap
     ethr =  1.32E-10,  avg # of iterations =  3.0

     total cpu time spent up to now is       53.5 secs

     total energy              =    -920.74229713 Ry
     Harris-Foulkes estimate   =    -920.74229713 Ry
     estimated scf accuracy    <          4.4E-09 Ry

     iteration # 21     ecut=    40.00 Ry     beta= 0.70
     Davidson diagonalization with overlap
     ethr =  3.90E-12,  avg # of iterations =  5.0

     total cpu time spent up to now is       54.1 secs

     total energy              =    -920.74229713 Ry
     Harris-Foulkes estimate   =    -920.74229713 Ry
     estimated scf accuracy    <          4.1E-10 Ry

     iteration # 22     ecut=    40.00 Ry     beta= 0.70
     Davidson diagonalization with overlap
     ethr =  3.68E-13,  avg # of iterations =  4.8

     total cpu time spent up to now is       54.6 secs

     total energy              =    -920.74229713 Ry
     Harris-Foulkes estimate   =    -920.74229713 Ry
     estimated scf accuracy    <          8.8E-10 Ry

     iteration # 23     ecut=    40.00 Ry     beta= 0.70
     Davidson diagonalization with overlap
     ethr =  3.68E-13,  avg # of iterations =  4.0

     total cpu time spent up to now is       55.2 secs

     End of self-consistent calculation

          k = 0.0000 0.0000 0.0000 (  5289 PWs)   bands (ev):

   -54.5880 -54.5837 -54.5354 -54.5248 -28.9743 -28.8784 -28.8158 -28.7833
   -28.7744 -28.7635 -28.7557 -28.7381 -28.6352 -28.6215 -28.6170 -28.5292
    -9.8950  -9.6489  -8.6122  -8.5743  -7.8883  -7.5116  -7.1778  -7.0509
    -6.9509  -6.7307   3.5980   3.6266   3.9557   4.0012   4.3232   5.1420
     5.3420   5.5784   5.9746   6.4484   6.4519   6.7123   6.7343   6.7414
     6.9735   6.9919   7.0708   7.4727   7.5193   7.5987   7.6133   7.8357
     7.9867   8.2422   8.2892   8.4363   8.4903   8.6100   8.8479   8.9538

          k = 0.0000 0.3260 0.0000 (  5265 PWs)   bands (ev):

   -54.5866 -54.5761 -54.5342 -54.5201 -28.9757 -28.8960 -28.8617 -28.8346
   -28.8093 -28.7604 -28.7565 -28.7525 -28.6387 -28.6209 -28.6141 -28.5291
    -9.6130  -9.4051  -8.5043  -8.4797  -7.6190  -7.3327  -6.7781  -6.7440
    -6.3694  -6.3531   3.3581   3.4736   3.5805   3.6671   3.7532   3.7863
     4.1966   4.3174   4.4140   4.6763   5.4392   5.4863   5.6026   6.3516
     6.5275   6.5598   7.0281   7.0972   7.6298   7.6888   7.8040   7.9356
     8.2972   8.3423   8.6245   8.6282   8.6627   8.9811   9.2530   9.8229

          k = 0.3601 0.0000 0.0000 (  5272 PWs)   bands (ev):

   -54.5710 -54.5552 -54.5329 -54.5284 -29.0009 -28.9507 -28.9418 -28.9217
   -28.7924 -28.7763 -28.7681 -28.7490 -28.6772 -28.6304 -28.6219 -28.5422
    -8.9416  -8.6199  -8.0131  -7.8329  -7.7512  -7.3552  -7.1643  -7.0776
    -6.8605  -6.7304   2.8148   2.9665   3.5406   3.9040   4.3758   4.4858
     4.4990   4.7350   5.4448   5.5357   5.7925   6.2390   6.4428   6.6510
     6.7079   6.7306   6.7384   6.9458   7.1864   7.2788   7.6969   8.0555
     8.0790   8.2354   8.2560   8.3223   8.7480   8.9086   8.9812   9.1696

          k = 0.3601 0.3260 0.0000 (  5261 PWs)   bands (ev):

   -54.5663 -54.5571 -54.5359 -54.5301 -29.0006 -28.9476 -28.9473 -28.9196
   -28.8378 -28.8143 -28.8136 -28.7827 -28.6783 -28.6331 -28.6209 -28.5416
    -8.6682  -8.4058  -7.9396  -7.8036  -7.4308  -7.2028  -6.6190  -6.5697
    -6.4136  -6.3790   2.7867   2.9120   3.2672   3.4933   3.5242   3.6317
     3.9337   4.2035   4.3341   4.3720   4.5122   5.0348   5.3830   5.5373
     5.7653   5.8437   6.0674   6.1769   6.5517   7.2185   7.8403   8.1199
     8.3649   8.4851   9.1195   9.1558   9.1770   9.2285   9.5488   9.7232

     highest occupied level (ev):     9.8229

!    total energy              =    -920.74229713 Ry
     Harris-Foulkes estimate   =    -920.74229713 Ry
     estimated scf accuracy    <          4.7E-12 Ry

     The total energy is the sum of the following terms:

     one-electron contribution =    -432.06003731 Ry
     hartree contribution      =     276.90839720 Ry
     xc contribution           =    -176.63854057 Ry
     ewald contribution        =    -588.76601965 Ry
     Dispersion Correction     =      -0.18609679 Ry

     convergence has been achieved in  23 iterations

     Forces acting on atoms (cartesian axes, Ry/au):

     atom    1 type  1   force =    -0.00000000    0.00623176   -0.02837385
     atom    2 type  1   force =     0.00000000   -0.00623176    0.02837385
     atom    3 type  1   force =     0.00000000   -0.00623176   -0.02837385
     atom    4 type  1   force =    -0.00000000    0.00623176    0.02837385
     atom    5 type  2   force =     0.00000000    0.02254762   -0.02774746
     atom    6 type  2   force =     0.00000000   -0.02254762    0.02774746
     atom    7 type  2   force =     0.00000000   -0.02254762   -0.02774746
     atom    8 type  2   force =     0.00000000    0.02254762    0.02774746
     atom    9 type  2   force =    -0.00000000   -0.07795618   -0.00996361
     atom   10 type  2   force =     0.00000000    0.07795618    0.00996361
     atom   11 type  2   force =     0.00000000    0.07795618   -0.00996361
     atom   12 type  2   force =    -0.00000000   -0.02612260    0.00000000
     atom   13 type  2   force =     0.00000000    0.02612260    0.00000000
     atom   14 type  2   force =     0.00000000   -0.07795618    0.00996361

     Total force =     0.185902     Total SCF correction =     0.000011


     Computing stress (Cartesian axis) and pressure

          total   stress  (Ry/bohr**3)                   (kbar)     P=  238.04
   0.00106428   0.00000000   0.00000000        156.56      0.00      0.00
   0.00000000   0.00280159   0.00000000          0.00    412.13      0.00
   0.00000000   0.00000000   0.00098859          0.00      0.00    145.43


     number of scf cycles    =   4
     number of bfgs steps    =   3

     enthalpy old            =    -920.5197920076 Ry
     enthalpy new            =    -920.7422971343 Ry

     CASE: enthalpy_new < enthalpy_old

     new trust radius        =       0.2378909486 bohr
     new conv_thr            =            1.0E-10 Ry

     new unit-cell volume =    887.13648 a.u.^3 (   131.46006 Ang^3 )
     density =      4.59484 g/cm^3

CELL_PARAMETERS (alat=  6.68268247)
   0.932073868   0.000000000   0.000000000
   0.000000000   1.064267191   0.000000000
   0.000000000   0.000000000   2.996656454

ATOMIC_POSITIONS (crystal)
V       -0.000000000   0.392966105   0.648660931
V        0.500000073   0.607034041   0.851339287
V        0.500000073   0.607034041   0.148660859
V        0.000000000   0.392966105   0.351339214
O        0.500000073   0.505837916   0.675910314
O       -0.000000000   0.494162230   0.824089905
O       -0.000000000   0.494162230   0.175910242
O        0.500000073   0.505837916   0.324089831
O       -0.000000000  -0.025431844   0.354283533
O        0.500000073   1.025431990   0.145716541
O        0.500000073   1.025431990   0.854283605
O        0.500000073   0.483036940   0.000000000
O        0.000000000   0.516963206   0.500000073
O        0.000000000  -0.025431844   0.645716614



     Writing output data file v2o5.save/
     NEW-OLD atomic charge density approx. for the potential

     Check: negative core charge=   -0.000227
     extrapolated charge  117.55802, renormalised to  112.00000

     total cpu time spent up to now is       56.2 secs

     Self-consistent Calculation

     iteration #  1     ecut=    40.00 Ry     beta= 0.70
     Davidson diagonalization with overlap
     ethr =  1.00E-06,  avg # of iterations = 10.5

     total cpu time spent up to now is       57.7 secs

     total energy              =    -918.20880544 Ry
     Harris-Foulkes estimate   =    -902.68725663 Ry
     estimated scf accuracy    <       2.11216030 Ry

     iteration #  2     ecut=    40.00 Ry     beta= 0.70
     Davidson diagonalization with overlap
     ethr =  1.89E-03,  avg # of iterations = 10.5

     total cpu time spent up to now is       58.8 secs

     total energy              =    -915.05884869 Ry
     Harris-Foulkes estimate   =    -928.03413141 Ry
     estimated scf accuracy    <      77.74417318 Ry

     iteration #  3     ecut=    40.00 Ry     beta= 0.70
     Davidson diagonalization with overlap
     ethr =  1.89E-03,  avg # of iterations =  5.8

     total cpu time spent up to now is       59.6 secs

     total energy              =    -920.80971440 Ry
     Harris-Foulkes estimate   =    -921.01881197 Ry
     estimated scf accuracy    <       0.65205010 Ry

     iteration #  4     ecut=    40.00 Ry     beta= 0.70
     Davidson diagonalization with overlap
     ethr =  5.82E-04,  avg # of iterations =  2.5

     total cpu time spent up to now is       60.0 secs

     total energy              =    -920.80873581 Ry
     Harris-Foulkes estimate   =    -920.84807029 Ry
     estimated scf accuracy    <       0.23355215 Ry

     iteration #  5     ecut=    40.00 Ry     beta= 0.70
     Davidson diagonalization with overlap
     ethr =  2.09E-04,  avg # of iterations =  2.0

     total cpu time spent up to now is       60.3 secs

     total energy              =    -920.80272806 Ry
     Harris-Foulkes estimate   =    -920.81788377 Ry
     estimated scf accuracy    <       0.15502579 Ry

     iteration #  6     ecut=    40.00 Ry     beta= 0.70
     Davidson diagonalization with overlap
     ethr =  1.38E-04,  avg # of iterations =  2.0

     total cpu time spent up to now is       60.6 secs

     total energy              =    -920.78486978 Ry
     Harris-Foulkes estimate   =    -920.80685489 Ry
     estimated scf accuracy    <       0.11749346 Ry

     iteration #  7     ecut=    40.00 Ry     beta= 0.70
     Davidson diagonalization with overlap
     ethr =  1.05E-04,  avg # of iterations =  2.5

     total cpu time spent up to now is       60.9 secs

     total energy              =    -920.77632642 Ry
     Harris-Foulkes estimate   =    -920.78957449 Ry
     estimated scf accuracy    <       0.06078253 Ry

     iteration #  8     ecut=    40.00 Ry     beta= 0.70
     Davidson diagonalization with overlap
     ethr =  5.43E-05,  avg # of iterations =  3.8

     total cpu time spent up to now is       61.4 secs

     total energy              =    -920.78896210 Ry
     Harris-Foulkes estimate   =    -920.78899419 Ry
     estimated scf accuracy    <       0.00622946 Ry

     iteration #  9     ecut=    40.00 Ry     beta= 0.70
     Davidson diagonalization with overlap
     ethr =  5.56E-06,  avg # of iterations =  2.5

     total cpu time spent up to now is       61.8 secs

     total energy              =    -920.78910494 Ry
     Harris-Foulkes estimate   =    -920.78912801 Ry
     estimated scf accuracy    <       0.00640104 Ry

     iteration # 10     ecut=    40.00 Ry     beta= 0.70
     Davidson diagonalization with overlap
     ethr =  5.56E-06,  avg # of iterations =  1.0

     total cpu time spent up to now is       62.0 secs

     total energy              =    -920.78874967 Ry
     Harris-Foulkes estimate   =    -920.78912053 Ry
     estimated scf accuracy    <       0.00636936 Ry

     iteration # 11     ecut=    40.00 Ry     beta= 0.70
     Davidson diagonalization with overlap
     ethr =  5.56E-06,  avg # of iterations =  1.8

     total cpu time spent up to now is       62.3 secs

     total energy              =    -920.78525361 Ry
     Harris-Foulkes estimate   =    -920.78897095 Ry
     estimated scf accuracy    <       0.00584231 Ry

     iteration # 12     ecut=    40.00 Ry     beta= 0.70
     Davidson diagonalization with overlap
     ethr =  5.22E-06,  avg # of iterations =  5.0

     total cpu time spent up to now is       63.2 secs

     total energy              =    -920.78837801 Ry
     Harris-Foulkes estimate   =    -920.79042749 Ry
     estimated scf accuracy    <       0.01682619 Ry

     iteration # 13     ecut=    40.00 Ry     beta= 0.70
     Davidson diagonalization with overlap
     ethr =  5.22E-06,  avg # of iterations =  1.0

     total cpu time spent up to now is       63.5 secs

     total energy              =    -920.78642140 Ry
     Harris-Foulkes estimate   =    -920.78855759 Ry
     estimated scf accuracy    <       0.01145240 Ry

     iteration # 14     ecut=    40.00 Ry     beta= 0.70
     Davidson diagonalization with overlap
     ethr =  5.22E-06,  avg # of iterations =  4.0

     total cpu time spent up to now is       64.0 secs

     total energy              =    -920.78738698 Ry
     Harris-Foulkes estimate   =    -920.78751624 Ry
     estimated scf accuracy    <       0.00092978 Ry

     iteration # 15     ecut=    40.00 Ry     beta= 0.70
     Davidson diagonalization with overlap
     ethr =  8.30E-07,  avg # of iterations =  3.2

     total cpu time spent up to now is       64.3 secs

     total energy              =    -920.78743760 Ry
     Harris-Foulkes estimate   =    -920.78744301 Ry
     estimated scf accuracy    <       0.00058923 Ry

     iteration # 16     ecut=    40.00 Ry     beta= 0.70
     Davidson diagonalization with overlap
     ethr =  5.26E-07,  avg # of iterations =  1.2

     total cpu time spent up to now is       64.6 secs

     total energy              =    -920.78743043 Ry
     Harris-Foulkes estimate   =    -920.78745298 Ry
     estimated scf accuracy    <       0.00056442 Ry

     iteration # 17     ecut=    40.00 Ry     beta= 0.70
     Davidson diagonalization with overlap
     ethr =  5.04E-07,  avg # of iterations =  4.0

     total cpu time spent up to now is       65.1 secs

     total energy              =    -920.78745736 Ry
     Harris-Foulkes estimate   =    -920.78749753 Ry
     estimated scf accuracy    <       0.00062510 Ry

     iteration # 18     ecut=    40.00 Ry     beta= 0.70
     Davidson diagonalization with overlap
     ethr =  5.04E-07,  avg # of iterations =  1.0

     total cpu time spent up to now is       65.3 secs

     total energy              =    -920.78726847 Ry
     Harris-Foulkes estimate   =    -920.78746065 Ry
     estimated scf accuracy    <       0.00052583 Ry

     iteration # 19     ecut=    40.00 Ry     beta= 0.70
     Davidson diagonalization with overlap
     ethr =  4.69E-07,  avg # of iterations =  4.2

     total cpu time spent up to now is       65.9 secs

     total energy              =    -920.78738535 Ry
     Harris-Foulkes estimate   =    -920.78739606 Ry
     estimated scf accuracy    <       0.00005727 Ry

     iteration # 20     ecut=    40.00 Ry     beta= 0.70
     Davidson diagonalization with overlap
     ethr =  5.11E-08,  avg # of iterations =  3.5

     total cpu time spent up to now is       66.3 secs

     total energy              =    -920.78738044 Ry
     Harris-Foulkes estimate   =    -920.78738844 Ry
     estimated scf accuracy    <       0.00002862 Ry

     iteration # 21     ecut=    40.00 Ry     beta= 0.70
     Davidson diagonalization with overlap
     ethr =  2.56E-08,  avg # of iterations =  4.2

     total cpu time spent up to now is       66.8 secs

     total energy              =    -920.78738783 Ry
     Harris-Foulkes estimate   =    -920.78738885 Ry
     estimated scf accuracy    <       0.00000570 Ry

     iteration # 22     ecut=    40.00 Ry     beta= 0.70
     Davidson diagonalization with overlap
     ethr =  5.09E-09,  avg # of iterations =  2.5

     total cpu time spent up to now is       67.2 secs

     total energy              =    -920.78738721 Ry
     Harris-Foulkes estimate   =    -920.78738805 Ry
     estimated scf accuracy    <       0.00000307 Ry

     iteration # 23     ecut=    40.00 Ry     beta= 0.70
     Davidson diagonalization with overlap
     ethr =  2.74E-09,  avg # of iterations =  4.0

     total cpu time spent up to now is       67.7 secs

     total energy              =    -920.78738787 Ry
     Harris-Foulkes estimate   =    -920.78738792 Ry
     estimated scf accuracy    <       0.00000011 Ry

     iteration # 24     ecut=    40.00 Ry     beta= 0.70
     Davidson diagonalization with overlap
     ethr =  9.72E-11,  avg # of iterations =  5.0

     total cpu time spent up to now is       68.4 secs

     total energy              =    -920.78738791 Ry
[...]
   0.000000000   1.102270822   0.000000000
   0.000000000   0.000000000   2.890680183

ATOMIC_POSITIONS (crystal)
V       -0.000000000   0.316070631   0.655524042
V        0.500000080   0.683929530   0.844476198
V        0.500000080   0.683929530   0.155523963
V        0.000000000   0.316070631   0.344476118
O        0.500000080   0.496468840   0.670480181
O        0.000000000   0.503531321   0.829520059
O       -0.000000000   0.503531321   0.170480102
O        0.500000080   0.496468840   0.329519978
O       -0.000000000  -0.083058179   0.358509070
O        0.500000080   1.083058340   0.141491011
O        0.500000080   1.083058340   0.858509149
O        0.500000080   0.552597325   0.000000000
O       -0.000000000   0.447402836   0.500000080
O        0.000000000  -0.083058179   0.641491092
End final coordinates



     Writing output data file v2o5.save/

     A final scf calculation at the relaxed structure.
     The G-vectors are recalculated for the final unit cell
     Results may differ from those at the preceding step.

     Parallelization info
     --------------------
     sticks:   dense  smooth     PW     G-vecs:    dense   smooth      PW
     Min          17      17      5                  912      912     138
     Max          18      18      7                  920      920     143
     Sum         569     569    167                29321    29321    4527



     bravais-lattice index     =            8
     lattice parameter (alat)  =       6.6827  a.u.
     unit-cell volume          =     859.3713 (a.u.)^3
     number of atoms/cell      =           14
     number of atomic types    =            2
     number of electrons       =       112.00
     number of Kohn-Sham states=           56
     kinetic-energy cutoff     =      40.0000  Ry
     charge density cutoff     =     160.0000  Ry
     convergence threshold     =      1.0E-12
     mixing beta               =       0.7000
     number of iterations used =            8  plain     mixing
     Exchange-correlation      = PBE ( 1  4  3  4 0 0)

     celldm(1)=   6.682682  celldm(2)=   1.263659  celldm(3)=   3.271025
     celldm(4)=   0.000000  celldm(5)=   0.000000  celldm(6)=   0.000000

     crystal axes: (cart. coord. in units of alat)
               a(1) = (   0.903733   0.000000   0.000000 )  
               a(2) = (   0.000000   1.102271   0.000000 )  
               a(3) = (   0.000000   0.000000   2.890680 )  

     reciprocal axes: (cart. coord. in units 2 pi/alat)
               b(1) = (  1.106522  0.000000  0.000000 )  
               b(2) = (  0.000000  0.907218  0.000000 )  
               b(3) = (  0.000000  0.000000  0.345939 )  


     PseudoPot. # 1 for V  read from file:
     /home/mpicuntureo/pseudos/v.nc.upf
     MD5 check sum: 40fb93c06b4f9d8c28c5ccd071294a04
     Pseudo is Norm-conserving + core correction, Zval = 13.0
     Generated using ONCVPSP code by D. R. Hamann
     Using radial grid of 1536 points,  6 beta functions with: 
                l(1) =   0
                l(2) =   0
                l(3) =   1
                l(4) =   1
                l(5) =   2
                l(6) =   2

     PseudoPot. # 2 for O  read from file:
     /home/mpicuntureo/pseudos/o.nc.upf
     MD5 check sum: 3e3f909f7470e8921608ab6b1f57bbae
     Pseudo is Norm-conserving + core correction, Zval =  6.0
     Generated using ONCVPSP code by D. R. Hamann
     Using radial grid of  936 points,  5 beta functions with: 
                l(1) =   0
                l(2) =   0
                l(3) =   1
                l(4) =   1
                l(5) =   2

     atomic species   valence    mass     pseudopotential
        V             13.00    50.94150     V ( 1.00)
        O              6.00    15.99940     O ( 1.00)

      8 Sym. Ops., with inversion, found ( 4 have fractional translation)



   Cartesian axes

     site n.     atom                  positions (alat units)
         1           V   tau(   1) = (  -0.0000000   0.3483954   1.8949104  )
         2           V   tau(   2) = (   0.4518664   0.7538756   2.4411106  )
         3           V   tau(   3) = (   0.4518664   0.7538756   0.4495700  )
         4           V   tau(   4) = (   0.0000000   0.3483954   0.9957703  )
         5           O   tau(   5) = (   0.4518664   0.5472431   1.9381438  )
         6           O   tau(   6) = (   0.0000000   0.5550279   2.3978772  )
         7           O   tau(   7) = (  -0.0000000   0.5550279   0.4928035  )
         8           O   tau(   8) = (   0.4518664   0.5472431   0.9525369  )
         9           O   tau(   9) = (  -0.0000000  -0.0915526   1.0363351  )
        10           O   tau(  10) = (   0.4518664   1.1938236   0.4090053  )
        11           O   tau(  11) = (   0.4518664   1.1938236   2.4816754  )
        12           O   tau(  12) = (   0.4518664   0.6091119   0.0000000  )
        13           O   tau(  13) = (  -0.0000000   0.4931591   1.4453403  )
        14           O   tau(  14) = (   0.0000000  -0.0915526   1.8543456  )

     number of k points=     4
                       cart. coord. in units 2pi/alat
        k(    1) = (   0.0000000   0.0000000   0.0000000), wk =   0.2222222
        k(    2) = (   0.0000000   0.3024060   0.0000000), wk =   0.4444444
        k(    3) = (   0.3688406   0.0000000   0.0000000), wk =   0.4444444
        k(    4) = (   0.3688406   0.3024060   0.0000000), wk =   0.8888889

     Dense  grid:    29321 G-vectors     FFT dimensions: (  30,  30,  80)

     Estimated max dynamical RAM per process >       6.87 MB

     Estimated total dynamical RAM >     219.93 MB

     Check: negative core charge=   -0.000709

     Initial potential from superposition of free atoms

     starting charge  111.99579, renormalised to  112.00000
     Starting wfcs are   80 randomized atomic wfcs

     total cpu time spent up to now is      347.3 secs

     Self-consistent Calculation

     iteration #  1     ecut=    40.00 Ry     beta= 0.70
     Davidson diagonalization with overlap
     ethr =  1.00E-06,  avg # of iterations =  7.5

     total cpu time spent up to now is      348.5 secs

     total energy              =    -914.83292473 Ry
     Harris-Foulkes estimate   =    -919.97660028 Ry
     estimated scf accuracy    <       6.59208763 Ry

     iteration #  2     ecut=    40.00 Ry     beta= 0.70
     Davidson diagonalization with overlap
     ethr =  5.89E-03,  avg # of iterations =  6.2

     total cpu time spent up to now is      349.2 secs

     total energy              =    -907.21261466 Ry
     Harris-Foulkes estimate   =    -927.21069093 Ry
     estimated scf accuracy    <      76.84190268 Ry

     iteration #  3     ecut=    40.00 Ry     beta= 0.70
     Davidson diagonalization with overlap
     ethr =  5.89E-03,  avg # of iterations =  5.0

     total cpu time spent up to now is      350.0 secs

     total energy              =    -918.31403785 Ry
     Harris-Foulkes estimate   =    -918.78189812 Ry
     estimated scf accuracy    <       1.79211631 Ry

     iteration #  4     ecut=    40.00 Ry     beta= 0.70
     Davidson diagonalization with overlap
     ethr =  1.60E-03,  avg # of iterations =  3.2

     total cpu time spent up to now is      350.3 secs

     total energy              =    -918.33000557 Ry
     Harris-Foulkes estimate   =    -918.49973633 Ry
     estimated scf accuracy    <       0.84699047 Ry

     iteration #  5     ecut=    40.00 Ry     beta= 0.70
     Davidson diagonalization with overlap
     ethr =  7.56E-04,  avg # of iterations =  3.5

     total cpu time spent up to now is      350.6 secs

     total energy              =    -918.35267650 Ry
     Harris-Foulkes estimate   =    -918.40166271 Ry
     estimated scf accuracy    <       0.24767601 Ry

     iteration #  6     ecut=    40.00 Ry     beta= 0.70
     Davidson diagonalization with overlap
     ethr =  2.21E-04,  avg # of iterations =  4.0

     total cpu time spent up to now is      351.1 secs

     total energy              =    -918.39518922 Ry
     Harris-Foulkes estimate   =    -918.40323591 Ry
     estimated scf accuracy    <       0.01716524 Ry

     iteration #  7     ecut=    40.00 Ry     beta= 0.70
     Davidson diagonalization with overlap
     ethr =  1.53E-05,  avg # of iterations =  4.2

     total cpu time spent up to now is      351.6 secs

     total energy              =    -918.40142223 Ry
     Harris-Foulkes estimate   =    -918.40425449 Ry
     estimated scf accuracy    <       0.01433318 Ry

     iteration #  8     ecut=    40.00 Ry     beta= 0.70
     Davidson diagonalization with overlap
     ethr =  1.28E-05,  avg # of iterations =  2.0

     total cpu time spent up to now is      351.9 secs

     total energy              =    -918.39998745 Ry
     Harris-Foulkes estimate   =    -918.40196759 Ry
     estimated scf accuracy    <       0.00739077 Ry

     iteration #  9     ecut=    40.00 Ry     beta= 0.70
     Davidson diagonalization with overlap
     ethr =  6.60E-06,  avg # of iterations =  3.2

     total cpu time spent up to now is      352.3 secs

     total energy              =    -918.40146863 Ry
     Harris-Foulkes estimate   =    -918.40181323 Ry
     estimated scf accuracy    <       0.00101500 Ry

     iteration # 10     ecut=    40.00 Ry     beta= 0.70
     Davidson diagonalization with overlap
     ethr =  9.06E-07,  avg # of iterations =  4.0

     total cpu time spent up to now is      352.7 secs

     total energy              =    -918.40157144 Ry
     Harris-Foulkes estimate   =    -918.40159175 Ry
     estimated scf accuracy    <       0.00006058 Ry

     iteration # 11     ecut=    40.00 Ry     beta= 0.70
     Davidson diagonalization with overlap
     ethr =  5.41E-08,  avg # of iterations =  4.5

     total cpu time spent up to now is      353.3 secs

     total energy              =    -918.40160389 Ry
     Harris-Foulkes estimate   =    -918.40160479 Ry
     estimated scf accuracy    <       0.00000389 Ry

     iteration # 12     ecut=    40.00 Ry     beta= 0.70
     Davidson diagonalization with overlap
     ethr =  3.47E-09,  avg # of iterations =  2.5

     total cpu time spent up to now is      353.6 secs

     total energy              =    -918.40160339 Ry
     Harris-Foulkes estimate   =    -918.40160408 Ry
     estimated scf accuracy    <       0.00000195 Ry

     iteration # 13     ecut=    40.00 Ry     beta= 0.70
     Davidson diagonalization with overlap
     ethr =  1.74E-09,  avg # of iterations =  3.8

     total cpu time spent up to now is      354.0 secs

     total energy              =    -918.40160387 Ry
     Harris-Foulkes estimate   =    -918.40160394 Ry
     estimated scf accuracy    <       0.00000020 Ry

     iteration # 14     ecut=    40.00 Ry     beta= 0.70
     Davidson diagonalization with overlap
     ethr =  1.76E-10,  avg # of iterations =  4.0

     total cpu time spent up to now is      354.4 secs

     total energy              =    -918.40160389 Ry
     Harris-Foulkes estimate   =    -918.40160390 Ry
     estimated scf accuracy    <       0.00000001 Ry

     iteration # 15     ecut=    40.00 Ry     beta= 0.70
     Davidson diagonalization with overlap
     ethr =  1.11E-11,  avg # of iterations =  4.5

     total cpu time spent up to now is      355.0 secs

     total energy              =    -918.40160390 Ry
     Harris-Foulkes estimate   =    -918.40160390 Ry
     estimated scf accuracy    <          2.0E-09 Ry

     iteration # 16     ecut=    40.00 Ry     beta= 0.70
     Davidson diagonalization with overlap
     ethr =  1.75E-12,  avg # of iterations =  3.8

     total cpu time spent up to now is      355.4 secs

     total energy              =    -918.40160390 Ry
     Harris-Foulkes estimate   =    -918.40160390 Ry
     estimated scf accuracy    <          5.8E-10 Ry

     iteration # 17     ecut=    40.00 Ry     beta= 0.70
     Davidson diagonalization with overlap
     ethr =  5.19E-13,  avg # of iterations =  4.0

     total cpu time spent up to now is      355.9 secs

     total energy              =    -918.40160390 Ry
     Harris-Foulkes estimate   =    -918.40160390 Ry
     estimated scf accuracy    <          1.3E-10 Ry

     iteration # 18     ecut=    40.00 Ry     beta= 0.70
     Davidson diagonalization with overlap
     ethr =  1.20E-13,  avg # of iterations =  3.5

     total cpu time spent up to now is      356.2 secs

     total energy              =    -918.40160390 Ry
     Harris-Foulkes estimate   =    -918.40160390 Ry
     estimated scf accuracy    <          3.8E-11 Ry

     iteration # 19     ecut=    40.00 Ry     beta= 0.70
     Davidson diagonalization with overlap
     ethr =  1.00E-13,  avg # of iterations =  3.2

     total cpu time spent up to now is      356.5 secs

     total energy              =    -918.40160390 Ry
     Harris-Foulkes estimate   =    -918.40160390 Ry
     estimated scf accuracy    <          1.8E-12 Ry

     iteration # 20     ecut=    40.00 Ry     beta= 0.70
     Davidson diagonalization with overlap
     ethr =  1.00E-13,  avg # of iterations =  1.0

     total cpu time spent up to now is      356.7 secs

     End of self-consistent calculation

          k = 0.0000 0.0000 0.0000 (  3665 PWs)   bands (ev):

   -55.6302 -55.5918 -55.5879 -55.5591 -30.1192 -30.0894 -30.0554 -30.0537
   -30.0162 -29.9512 -29.8926 -29.8890 -29.8753 -29.8271 -29.8104 -29.7893
   -10.1806  -9.9272  -8.7766  -8.5744  -7.9111  -7.7166  -7.0358  -7.0218
    -6.9938  -6.9505   3.7605   3.8048   3.8403   4.1139   4.3291   4.4994
     4.6168   5.1108   5.4663   5.6789   5.9110   6.1768   6.7600   6.8789
     7.0910   7.2420   7.4079   7.5173   7.6426   7.8626   7.9526   8.0091
     8.1767   8.2024   8.2924   8.4209   8.6218   8.6298   8.7990   8.9356

          k = 0.0000 0.3024 0.0000 (  3649 PWs)   bands (ev):

   -55.6202 -55.6001 -55.5679 -55.5487 -30.1251 -30.1015 -30.0855 -30.0464
   -30.0431 -29.9384 -29.8946 -29.8744 -29.8711 -29.8261 -29.8095 -29.7988
    -9.8563  -9.6405  -8.5992  -8.4582  -7.8637  -7.7046  -7.1605  -7.0669
    -6.8177  -6.7252   3.3612   3.4551   3.4958   3.5487   3.6801   3.7961
     4.3329   4.4246   4.4744   4.8607   4.8951   5.1243   6.2743   6.9304
     6.9648   7.1209   7.2587   7.3412   7.5864   7.7446   7.9702   8.7321
     8.7945   8.9446   9.0280   9.1172   9.1288   9.1822   9.5566   9.8331

          k = 0.3688 0.0000 0.0000 (  3694 PWs)   bands (ev):

   -55.6286 -55.6111 -55.5898 -55.5810 -30.1100 -30.0919 -30.0680 -30.0489
   -30.0353 -30.0321 -30.0083 -29.9850 -29.9085 -29.8938 -29.8639 -29.8303
    -9.3229  -9.0775  -8.2431  -8.1992  -8.0867  -7.6904  -7.2160  -7.0609
    -7.0132  -7.0081   3.4932   3.5358   3.7101   4.3667   4.5896   4.6182
     4.7188   4.8538   5.1492   5.4548   5.9239   5.9924   6.1397   6.5488
     6.5974   6.6678   6.8103   6.8926   7.2865   7.4996   7.8763   8.0905
     8.3326   8.3716   8.4676   8.5458   8.7528   8.9228   9.0577   9.4395

          k = 0.3688 0.3024 0.0000 (  3680 PWs)   bands (ev):

   -55.6161 -55.5993 -55.5876 -55.5783 -30.1196 -30.1021 -30.0699 -30.0530
   -30.0477 -30.0402 -30.0148 -29.9760 -29.9047 -29.8944 -29.8686 -29.8235
    -9.0849  -8.8864  -8.2366  -8.1963  -7.9093  -7.6627  -7.0083  -6.9597
    -6.8408  -6.7823   3.1696   3.2077   3.3589   3.7204   4.0013   4.0126
     4.3188   4.4824   4.4840   4.7106   4.8069   5.1923   5.6300   6.1880
     6.2790   6.5370   7.0876   7.2040   7.4391   7.6232   8.2075   8.3242
     8.5282   8.5382   8.8752   9.0293   9.1857   9.2399   9.6476   9.8111

     highest occupied level (ev):     9.8331

!    total energy              =    -918.40160390 Ry
     Harris-Foulkes estimate   =    -918.40160390 Ry
     estimated scf accuracy    <          5.6E-13 Ry

     The total energy is the sum of the following terms:

     one-electron contribution =    -400.50185745 Ry
     hartree contribution      =     258.97164233 Ry
     xc contribution           =    -175.16843666 Ry
     ewald contribution        =    -601.51942151 Ry
     Dispersion Correction     =      -0.18353061 Ry

     convergence has been achieved in  20 iterations

     Forces acting on atoms (cartesian axes, Ry/au):

     atom    1 type  1   force =    -0.00000000    0.06403775    0.04820327
     atom    2 type  1   force =     0.00000000   -0.06403775   -0.04820327
     atom    3 type  1   force =     0.00000000   -0.06403775    0.04820327
     atom    4 type  1   force =    -0.00000000    0.06403775   -0.04820327
     atom    5 type  2   force =     0.00000000   -0.00207833    0.01400431
     atom    6 type  2   force =     0.00000000    0.00207833   -0.01400431
     atom    7 type  2   force =     0.00000000    0.00207833    0.01400431
     atom    8 type  2   force =    -0.00000000   -0.00207833   -0.01400431
     atom    9 type  2   force =     0.00000000   -0.06702785    0.00165300
     atom   10 type  2   force =     0.00000000    0.06702785   -0.00165300
     atom   11 type  2   force =    -0.00000000    0.06702785    0.00165300
     atom   12 type  2   force =    -0.00000000   -0.02130189   -0.00000000
     atom   13 type  2   force =     0.00000000    0.02130189   -0.00000000
     atom   14 type  2   force =    -0.00000000   -0.06702785   -0.00165300

     Total force =     0.213046     Total SCF correction =     0.000002


     Computing stress (Cartesian axis) and pressure

          total   stress  (Ry/bohr**3)                   (kbar)     P=-1176.22
  -0.00710028   0.00000000   0.00000000      -1044.49      0.00      0.00
   0.00000000  -0.00884321   0.00000000          0.00  -1300.88      0.00
   0.00000000   0.00000000  -0.00804387          0.00      0.00  -1183.29


     Writing output data file v2o5.save/

     init_run     :      0.51s CPU      0.52s WALL (       2 calls)
     electrons    :    316.71s CPU    325.86s WALL (      33 calls)
     update_pot   :      6.89s CPU      6.92s WALL (      31 calls)
     forces       :      9.18s CPU      9.29s WALL (      33 calls)
     stress       :     13.69s CPU     13.73s WALL (      33 calls)

     Called by init_run:
     wfcinit      :      0.26s CPU      0.26s WALL (       2 calls)
     potinit      :      0.08s CPU      0.08s WALL (       2 calls)
     hinit0       :      0.16s CPU      0.17s WALL (       2 calls)

     Called by electrons:
     c_bands      :    299.62s CPU    307.89s WALL (     614 calls)
     sum_band     :     12.54s CPU     13.15s WALL (     614 calls)
     v_of_rho     :      1.27s CPU      1.29s WALL (     638 calls)
     mix_rho      :      0.71s CPU      0.72s WALL (     614 calls)

     Called by c_bands:
     init_us_2    :      1.11s CPU      1.24s WALL (    5184 calls)
     cegterg      :    295.27s CPU    302.81s WALL (    2456 calls)

     Called by sum_band:

     Called by *egterg:
     h_psi        :    126.18s CPU    130.39s WALL (   11421 calls)
     g_psi        :      0.32s CPU      0.33s WALL (    8957 calls)
     cdiaghg      :     97.56s CPU     99.93s WALL (   11253 calls)

     Called by h_psi:
     h_psi:pot    :    125.49s CPU    129.66s WALL (   11421 calls)
     h_psi:calbec :     33.89s CPU     35.35s WALL (   11421 calls)
     vloc_psi     :     69.17s CPU     71.63s WALL (   11421 calls)
     add_vuspsi   :     22.39s CPU     22.65s WALL (   11421 calls)

     General routines
     calbec       :     37.32s CPU     38.90s WALL (   12081 calls)
     fft          :      1.26s CPU      1.28s WALL (    7212 calls)
     ffts         :      0.08s CPU      0.08s WALL (     614 calls)
     fftw         :     76.10s CPU     78.95s WALL (  944624 calls)

     Parallel routines
     fft_scatt_xy :      3.70s CPU      3.82s WALL (  952450 calls)
     fft_scatt_yz :     50.59s CPU     52.57s WALL (  952450 calls)

     PWSCF        :   5m47.86s CPU   5m57.32s WALL


   This run was terminated on:  21:50: 5  17May2024            

=------------------------------------------------------------------------------=
   JOB DONE.
=------------------------------------------------------------------------------=
