
     Program PWSCF v.6.4.1 starts on 30May2024 at 22:46:26 

     This program is part of the open-source Quantum ESPRESSO suite
     for quantum simulation of materials; please cite
         "P. Giannozzi et al., J. Phys.:Condens. Matter 21 395502 (2009);
         "P. Giannozzi et al., J. Phys.:Condens. Matter 29 465901 (2017);
          URL http://www.quantum-espresso.org", 
     in publications or presentations arising from this work. More details at
     http://www.quantum-espresso.org/quote

     Parallel version (MPI), running on    32 processors

     MPI processes distributed on     1 nodes
     R & G space division:  proc/nbgrp/npool/nimage =      32
     Reading input from v16o40.rlx.in

     Current dimensions of program PWSCF are:
     Max number of different atomic species (ntypx) = 10
     Max number of k-points (npk) =  40000
     Max angular momentum in pseudopotentials (lmaxx) =  3
               file V.pbe-spnl-kjpaw_psl.1.0.0.UPF: wavefunction(s)  3P 3D renormalized
               file O.pbe-n-kjpaw_psl.1.0.0.UPF: wavefunction(s)  2S 2P renormalized

     -------------------------------------------------
     Parameters for Dispersion (Grimme-D2) Correction:
     -------------------------------------------------
       atom      VdW radius       C_6     

        V          2.952        374.666
        O          2.536         24.284

     Subspace diagonalization in iterative solution of the eigenvalue problem:
     one sub-group per band group will be used
     ELPA distributed-memory algorithm (size of sub-group:  4*  4 procs)

     Found symmetry operation: I + (  0.5000  0.0000  0.0000)
     This is a supercell, fractional translations are disabled

     Parallelization info
     --------------------
     sticks:   dense  smooth     PW     G-vecs:    dense   smooth      PW
     Min         363     145     39                42943    10863    1531
     Max         367     146     40                42945    10870    1534
     Sum       11627    4657   1261              1374195   347715   49027



     bravais-lattice index     =            8
     lattice parameter (alat)  =      13.5232  a.u.
     unit-cell volume          =    4911.3436 (a.u.)^3
     number of atoms/cell      =           56
     number of atomic types    =            2
     number of electrons       =       448.00
     number of Kohn-Sham states=          269
     kinetic-energy cutoff     =      65.0000  Ry
     charge density cutoff     =     650.0000  Ry
     convergence threshold     =      1.0E-10
     mixing beta               =       0.7000
     number of iterations used =            8  plain     mixing
     Exchange-correlation      = SLA PW PBX PBC ( 1  4  3  4 0 0)
     nstep                     =          500


     celldm(1)=  13.523246  celldm(2)=   1.231081  celldm(3)=   1.613135
     celldm(4)=   0.000000  celldm(5)=   0.000000  celldm(6)=   0.000000

     crystal axes: (cart. coord. in units of alat)
               a(1) = (   1.000000   0.000000   0.000000 )  
               a(2) = (   0.000000   1.231081   0.000000 )  
               a(3) = (   0.000000   0.000000   1.613135 )  

     reciprocal axes: (cart. coord. in units 2 pi/alat)
               b(1) = (  1.000000  0.000000  0.000000 )  
               b(2) = (  0.000000  0.812294  0.000000 )  
               b(3) = (  0.000000  0.000000  0.619911 )  


     PseudoPot. # 1 for V  read from file:
     /home/mpicuntureo/pseudos/V.pbe-spnl-kjpaw_psl.1.0.0.UPF
     MD5 check sum: 069c5df6a0a9f40a694a86a6cab52b89
     Pseudo is Projector augmented-wave + core cor, Zval = 13.0
     Generated using "atomic" code by A. Dal Corso v.6.3
     Shape of augmentation charge: PSQ
     Using radial grid of 1181 points,  6 beta functions with: 
                l(1) =   0
                l(2) =   0
                l(3) =   1
                l(4) =   1
                l(5) =   2
                l(6) =   2
     Q(r) pseudized with 0 coefficients 


     PseudoPot. # 2 for O  read from file:
     /home/mpicuntureo/pseudos/O.pbe-n-kjpaw_psl.1.0.0.UPF
     MD5 check sum: e99d9cef9b487d1ca56f5b95ecd0fd7a
     Pseudo is Projector augmented-wave + core cor, Zval =  6.0
     Generated using "atomic" code by A. Dal Corso v.6.3
     Shape of augmentation charge: PSQ
     Using radial grid of 1095 points,  4 beta functions with: 
                l(1) =   0
                l(2) =   0
                l(3) =   1
                l(4) =   1
     Q(r) pseudized with 0 coefficients 


     atomic species   valence    mass     pseudopotential
        V             13.00    50.94150     V ( 1.00)
        O              6.00    15.99940     O ( 1.00)


     Simplified LDA+U calculation (l_max = 2) with parameters (eV):
     atomic species    L          U    alpha       J0     beta
        V              2     4.0000   0.0000   0.0000   0.0000



      4 Sym. Ops. (no inversion) found



   Cartesian axes

     site n.     atom                  positions (alat units)
         1           V   tau(   1) = (   0.0000000   0.2347607   1.0468618  )
         2           V   tau(   2) = (   0.2500000   0.3806958   1.3728350  )
         3           V   tau(   3) = (   0.2500000   0.3806958   0.2403003  )
         4           V   tau(   4) = (   0.0000000   0.2347607   0.5662735  )
         5           O   tau(   5) = (   0.2500000   0.3032478   1.0991655  )
         6           O   tau(   6) = (   0.0000000   0.3122310   1.3205111  )
         7           O   tau(   7) = (   0.0000000   0.3122310   0.2926242  )
         8           O   tau(   8) = (   0.2500000   0.3032478   0.5139698  )
         9           O   tau(   9) = (   0.0000000   0.0120329   0.5693047  )
        10           O   tau(  10) = (   0.2500000   0.6034230   0.2372678  )
        11           O   tau(  11) = (   0.2500000   0.6034230   1.3758675  )
        12           O   tau(  12) = (   0.2500000   0.3125313   0.0000000  )
        13           O   tau(  13) = (   0.0000000   0.3029536   0.8065677  )
        14           O   tau(  14) = (   0.0000000   0.0120329   1.0438306  )
        15           V   tau(  15) = (   0.0000000   0.8503855   1.0468680  )
        16           V   tau(  16) = (   0.2500000   0.9963204   1.3728412  )
        17           V   tau(  17) = (   0.2500000   0.9963204   0.2402942  )
        18           V   tau(  18) = (   0.0000000   0.8503855   0.5662673  )
        19           O   tau(  19) = (   0.2500000   0.9188502   1.0991919  )
        20           O   tau(  20) = (   0.0000000   0.9278335   1.3205374  )
        21           O   tau(  21) = (   0.0000000   0.9278335   0.2925979  )
        22           O   tau(  22) = (   0.2500000   0.9188502   0.5139434  )
        23           O   tau(  23) = (   0.0000000   0.6276582   0.5692999  )
        24           O   tau(  24) = (   0.2500000   1.2190483   0.2372630  )
        25           O   tau(  25) = (   0.2500000   1.2190483   1.3758723  )
        26           O   tau(  26) = (   0.2500000   0.9281275   0.0000000  )
        27           O   tau(  27) = (   0.0000000   0.9185499   0.8065677  )
        28           O   tau(  28) = (   0.0000000   0.6276582   1.0438354  )
        29           V   tau(  29) = (   0.5000000   0.2347608   1.0468618  )
        30           V   tau(  30) = (   0.7500000   0.3806958   1.3728350  )
        31           V   tau(  31) = (   0.7500000   0.3806958   0.2403003  )
        32           V   tau(  32) = (   0.5000000   0.2347608   0.5662735  )
        33           O   tau(  33) = (   0.7500000   0.3032478   1.0991655  )
        34           O   tau(  34) = (   0.5000000   0.3122310   1.3205111  )
        35           O   tau(  35) = (   0.5000000   0.3122310   0.2926242  )
        36           O   tau(  36) = (   0.7500000   0.3032478   0.5139698  )
        37           O   tau(  37) = (   0.5000000   0.0120330   0.5693047  )
        38           O   tau(  38) = (   0.7500000   0.6034230   0.2372678  )
        39           O   tau(  39) = (   0.7500000   0.6034230   1.3758675  )
        40           O   tau(  40) = (   0.7500000   0.3125313   0.0000000  )
        41           O   tau(  41) = (   0.5000000   0.3029537   0.8065677  )
        42           O   tau(  42) = (   0.5000000   0.0120330   1.0438306  )
        43           V   tau(  43) = (   0.5000000   0.8503855   1.0468680  )
        44           V   tau(  44) = (   0.7500000   0.9963204   1.3728412  )
        45           V   tau(  45) = (   0.7500000   0.9963204   0.2402942  )
        46           V   tau(  46) = (   0.5000000   0.8503855   0.5662673  )
        47           O   tau(  47) = (   0.7500000   0.9188502   1.0991919  )
        48           O   tau(  48) = (   0.5000000   0.9278335   1.3205374  )
        49           O   tau(  49) = (   0.5000000   0.9278335   0.2925979  )
        50           O   tau(  50) = (   0.7500000   0.9188502   0.5139434  )
        51           O   tau(  51) = (   0.5000000   0.6276582   0.5692999  )
        52           O   tau(  52) = (   0.7500000   1.2190483   0.2372630  )
        53           O   tau(  53) = (   0.7500000   1.2190483   1.3758723  )
        54           O   tau(  54) = (   0.7500000   0.9281275   0.0000000  )
        55           O   tau(  55) = (   0.5000000   0.9185500   0.8065677  )
        56           O   tau(  56) = (   0.5000000   0.6276582   1.0438354  )

     number of k points=     8  gaussian smearing, width (Ry)=  0.0500
                       cart. coord. in units 2pi/alat
        k(    1) = (   0.0000000   0.0000000   0.0000000), wk =   0.2500000
        k(    2) = (   0.0000000   0.0000000  -0.3099554), wk =   0.2500000
        k(    3) = (   0.0000000  -0.4061470   0.0000000), wk =   0.2500000
        k(    4) = (   0.0000000  -0.4061470  -0.3099554), wk =   0.2500000
        k(    5) = (  -0.5000000   0.0000000   0.0000000), wk =   0.2500000
        k(    6) = (  -0.5000000   0.0000000  -0.3099554), wk =   0.2500000
        k(    7) = (  -0.5000000  -0.4061470   0.0000000), wk =   0.2500000
        k(    8) = (  -0.5000000  -0.4061470  -0.3099554), wk =   0.2500000

     Dense  grid:  1374195 G-vectors     FFT dimensions: ( 120, 135, 180)

     Smooth grid:   347715 G-vectors     FFT dimensions: (  72,  90, 120)

     Estimated max dynamical RAM per process >     343.29 MB

     Estimated total dynamical RAM >      10.73 GB

     Check: negative core charge=   -0.000001

     Initial potential from superposition of free atoms

     starting charge  447.98541, renormalised to  448.00000
     Number of +U iterations with fixed ns =  0
     Starting occupations:
 --- enter write_ns ---
 LDA+U parameters:
U( 1)     =  4.00000000
alpha( 1) =  0.00000000
atom    1   Tr[ns(na)] =   3.00000
    eigenvalues: 
  0.300  0.300  0.300  0.300  0.300
    eigenvectors:
  1.000  0.000  0.000  0.000  0.000
  0.000  1.000  0.000  0.000  0.000
  0.000  0.000  1.000  0.000  0.000
  0.000  0.000  0.000  1.000  0.000
  0.000  0.000  0.000  0.000  1.000
    occupations:
  0.300  0.000  0.000  0.000  0.000
  0.000  0.300  0.000  0.000  0.000
  0.000  0.000  0.300  0.000  0.000
  0.000  0.000  0.000  0.300  0.000
  0.000  0.000  0.000  0.000  0.300
atom    2   Tr[ns(na)] =   3.00000
    eigenvalues: 
  0.300  0.300  0.300  0.300  0.300
    eigenvectors:
  1.000  0.000  0.000  0.000  0.000
  0.000  1.000  0.000  0.000  0.000
  0.000  0.000  1.000  0.000  0.000
  0.000  0.000  0.000  1.000  0.000
  0.000  0.000  0.000  0.000  1.000
    occupations:
  0.300  0.000  0.000  0.000  0.000
  0.000  0.300  0.000  0.000  0.000
  0.000  0.000  0.300  0.000  0.000
  0.000  0.000  0.000  0.300  0.000
  0.000  0.000  0.000  0.000  0.300
atom    3   Tr[ns(na)] =   3.00000
    eigenvalues: 
  0.300  0.300  0.300  0.300  0.300
    eigenvectors:
  1.000  0.000  0.000  0.000  0.000
  0.000  1.000  0.000  0.000  0.000
  0.000  0.000  1.000  0.000  0.000
  0.000  0.000  0.000  1.000  0.000
  0.000  0.000  0.000  0.000  1.000
    occupations:
  0.300  0.000  0.000  0.000  0.000
  0.000  0.300  0.000  0.000  0.000
  0.000  0.000  0.300  0.000  0.000
  0.000  0.000  0.000  0.300  0.000
  0.000  0.000  0.000  0.000  0.300
atom    4   Tr[ns(na)] =   3.00000
    eigenvalues: 
  0.300  0.300  0.300  0.300  0.300
    eigenvectors:
  1.000  0.000  0.000  0.000  0.000
  0.000  1.000  0.000  0.000  0.000
  0.000  0.000  1.000  0.000  0.000
  0.000  0.000  0.000  1.000  0.000
  0.000  0.000  0.000  0.000  1.000
    occupations:
  0.300  0.000  0.000  0.000  0.000
  0.000  0.300  0.000  0.000  0.000
  0.000  0.000  0.300  0.000  0.000
  0.000  0.000  0.000  0.300  0.000
  0.000  0.000  0.000  0.000  0.300
atom   15   Tr[ns(na)] =   3.00000
    eigenvalues: 
  0.300  0.300  0.300  0.300  0.300
    eigenvectors:
  1.000  0.000  0.000  0.000  0.000
  0.000  1.000  0.000  0.000  0.000
  0.000  0.000  1.000  0.000  0.000
  0.000  0.000  0.000  1.000  0.000
  0.000  0.000  0.000  0.000  1.000
    occupations:
  0.300  0.000  0.000  0.000  0.000
  0.000  0.300  0.000  0.000  0.000
  0.000  0.000  0.300  0.000  0.000
  0.000  0.000  0.000  0.300  0.000
  0.000  0.000  0.000  0.000  0.300
atom   16   Tr[ns(na)] =   3.00000
    eigenvalues: 
  0.300  0.300  0.300  0.300  0.300
    eigenvectors:
  1.000  0.000  0.000  0.000  0.000
  0.000  1.000  0.000  0.000  0.000
  0.000  0.000  1.000  0.000  0.000
  0.000  0.000  0.000  1.000  0.000
  0.000  0.000  0.000  0.000  1.000
    occupations:
  0.300  0.000  0.000  0.000  0.000
  0.000  0.300  0.000  0.000  0.000
  0.000  0.000  0.300  0.000  0.000
  0.000  0.000  0.000  0.300  0.000
  0.000  0.000  0.000  0.000  0.300
atom   17   Tr[ns(na)] =   3.00000
    eigenvalues: 
  0.300  0.300  0.300  0.300  0.300
    eigenvectors:
  1.000  0.000  0.000  0.000  0.000
  0.000  1.000  0.000  0.000  0.000
  0.000  0.000  1.000  0.000  0.000
  0.000  0.000  0.000  1.000  0.000
  0.000  0.000  0.000  0.000  1.000
    occupations:
  0.300  0.000  0.000  0.000  0.000
  0.000  0.300  0.000  0.000  0.000
  0.000  0.000  0.300  0.000  0.000
  0.000  0.000  0.000  0.300  0.000
  0.000  0.000  0.000  0.000  0.300
atom   18   Tr[ns(na)] =   3.00000
    eigenvalues: 
  0.300  0.300  0.300  0.300  0.300
    eigenvectors:
  1.000  0.000  0.000  0.000  0.000
  0.000  1.000  0.000  0.000  0.000
  0.000  0.000  1.000  0.000  0.000
  0.000  0.000  0.000  1.000  0.000
  0.000  0.000  0.000  0.000  1.000
    occupations:
  0.300  0.000  0.000  0.000  0.000
  0.000  0.300  0.000  0.000  0.000
  0.000  0.000  0.300  0.000  0.000
  0.000  0.000  0.000  0.300  0.000
  0.000  0.000  0.000  0.000  0.300
atom   29   Tr[ns(na)] =   3.00000
    eigenvalues: 
  0.300  0.300  0.300  0.300  0.300
    eigenvectors:
  1.000  0.000  0.000  0.000  0.000
  0.000  1.000  0.000  0.000  0.000
  0.000  0.000  1.000  0.000  0.000
  0.000  0.000  0.000  1.000  0.000
  0.000  0.000  0.000  0.000  1.000
    occupations:
  0.300  0.000  0.000  0.000  0.000
  0.000  0.300  0.000  0.000  0.000
  0.000  0.000  0.300  0.000  0.000
  0.000  0.000  0.000  0.300  0.000
  0.000  0.000  0.000  0.000  0.300
atom   30   Tr[ns(na)] =   3.00000
    eigenvalues: 
  0.300  0.300  0.300  0.300  0.300
    eigenvectors:
  1.000  0.000  0.000  0.000  0.000
  0.000  1.000  0.000  0.000  0.000
  0.000  0.000  1.000  0.000  0.000
  0.000  0.000  0.000  1.000  0.000
  0.000  0.000  0.000  0.000  1.000
    occupations:
  0.300  0.000  0.000  0.000  0.000
  0.000  0.300  0.000  0.000  0.000
  0.000  0.000  0.300  0.000  0.000
  0.000  0.000  0.000  0.300  0.000
  0.000  0.000  0.000  0.000  0.300
atom   31   Tr[ns(na)] =   3.00000
    eigenvalues: 
  0.300  0.300  0.300  0.300  0.300
    eigenvectors:
  1.000  0.000  0.000  0.000  0.000
  0.000  1.000  0.000  0.000  0.000
  0.000  0.000  1.000  0.000  0.000
  0.000  0.000  0.000  1.000  0.000
  0.000  0.000  0.000  0.000  1.000
    occupations:
  0.300  0.000  0.000  0.000  0.000
  0.000  0.300  0.000  0.000  0.000
  0.000  0.000  0.300  0.000  0.000
  0.000  0.000  0.000  0.300  0.000
  0.000  0.000  0.000  0.000  0.300
atom   32   Tr[ns(na)] =   3.00000
    eigenvalues: 
  0.300  0.300  0.300  0.300  0.300
    eigenvectors:
  1.000  0.000  0.000  0.000  0.000
  0.000  1.000  0.000  0.000  0.000
  0.000  0.000  1.000  0.000  0.000
  0.000  0.000  0.000  1.000  0.000
  0.000  0.000  0.000  0.000  1.000
    occupations:
  0.300  0.000  0.000  0.000  0.000
  0.000  0.300  0.000  0.000  0.000
  0.000  0.000  0.300  0.000  0.000
  0.000  0.000  0.000  0.300  0.000
  0.000  0.000  0.000  0.000  0.300
atom   43   Tr[ns(na)] =   3.00000
    eigenvalues: 
  0.300  0.300  0.300  0.300  0.300
    eigenvectors:
  1.000  0.000  0.000  0.000  0.000
  0.000  1.000  0.000  0.000  0.000
  0.000  0.000  1.000  0.000  0.000
  0.000  0.000  0.000  1.000  0.000
  0.000  0.000  0.000  0.000  1.000
    occupations:
  0.300  0.000  0.000  0.000  0.000
  0.000  0.300  0.000  0.000  0.000
  0.000  0.000  0.300  0.000  0.000
  0.000  0.000  0.000  0.300  0.000
  0.000  0.000  0.000  0.000  0.300
atom   44   Tr[ns(na)] =   3.00000
    eigenvalues: 
  0.300  0.300  0.300  0.300  0.300
    eigenvectors:
  1.000  0.000  0.000  0.000  0.000
  0.000  1.000  0.000  0.000  0.000
  0.000  0.000  1.000  0.000  0.000
  0.000  0.000  0.000  1.000  0.000
  0.000  0.000  0.000  0.000  1.000
    occupations:
  0.300  0.000  0.000  0.000  0.000
  0.000  0.300  0.000  0.000  0.000
  0.000  0.000  0.300  0.000  0.000
  0.000  0.000  0.000  0.300  0.000
  0.000  0.000  0.000  0.000  0.300
atom   45   Tr[ns(na)] =   3.00000
    eigenvalues: 
  0.300  0.300  0.300  0.300  0.300
    eigenvectors:
  1.000  0.000  0.000  0.000  0.000
  0.000  1.000  0.000  0.000  0.000
  0.000  0.000  1.000  0.000  0.000
  0.000  0.000  0.000  1.000  0.000
  0.000  0.000  0.000  0.000  1.000
    occupations:
  0.300  0.000  0.000  0.000  0.000
  0.000  0.300  0.000  0.000  0.000
  0.000  0.000  0.300  0.000  0.000
  0.000  0.000  0.000  0.300  0.000
  0.000  0.000  0.000  0.000  0.300
atom   46   Tr[ns(na)] =   3.00000
    eigenvalues: 
  0.300  0.300  0.300  0.300  0.300
    eigenvectors:
  1.000  0.000  0.000  0.000  0.000
  0.000  1.000  0.000  0.000  0.000
  0.000  0.000  1.000  0.000  0.000
  0.000  0.000  0.000  1.000  0.000
  0.000  0.000  0.000  0.000  1.000
    occupations:
  0.300  0.000  0.000  0.000  0.000
  0.000  0.300  0.000  0.000  0.000
  0.000  0.000  0.300  0.000  0.000
  0.000  0.000  0.000  0.300  0.000
  0.000  0.000  0.000  0.000  0.300
N of occupied +U levels =   48.000000
 --- exit write_ns ---
 Atomic wfc used for LDA+U Projector are NOT orthogonalized
     Starting wfcs are  320 randomized atomic wfcs
     Checking if some PAW data can be deallocated... 

     total cpu time spent up to now is      163.2 secs

     Self-consistent Calculation

     iteration #  1     ecut=    65.00 Ry     beta= 0.70
     Davidson diagonalization with overlap
     ethr =  1.00E-02,  avg # of iterations =  2.0
 --- enter write_ns ---
 LDA+U parameters:
U( 1)     =  4.00000000
alpha( 1) =  0.00000000
atom    1   Tr[ns(na)] =   2.78533
    eigenvalues: 
  0.169  0.265  0.267  0.323  0.369
    eigenvectors:
  0.000  0.000  0.078  0.591  0.331
  0.988  0.012  0.000  0.000  0.000
  0.000  0.000  0.896  0.103  0.001
  0.000  0.000  0.026  0.306  0.668
  0.012  0.988  0.000  0.000  0.000
    occupations:
  0.334 -0.000  0.016  0.024  0.000
 -0.000  0.171 -0.000  0.000 -0.011
  0.016 -0.000  0.273 -0.007  0.000
  0.024  0.000 -0.007  0.352 -0.000
  0.000 -0.011  0.000 -0.000  0.264
atom    2   Tr[ns(na)] =   2.78465
    eigenvalues: 
  0.169  0.265  0.267  0.323  0.369
    eigenvectors:
  0.000  0.000  0.078  0.591  0.331
  0.988  0.012  0.000  0.000  0.000
  0.000  0.000  0.896  0.103  0.001
  0.000  0.000  0.026  0.306  0.668
  0.012  0.987  0.000  0.000  0.000
    occupations:
  0.334 -0.000  0.016  0.024  0.000
 -0.000  0.170  0.000  0.000 -0.010
  0.016  0.000  0.273 -0.007 -0.000
  0.024  0.000 -0.007  0.352  0.000
  0.000 -0.010 -0.000  0.000  0.264
atom    3   Tr[ns(na)] =   2.78465
    eigenvalues: 
  0.169  0.265  0.267  0.323  0.369
    eigenvectors:
  0.000  0.000  0.078  0.591  0.331
  0.988  0.012  0.000  0.000  0.000
  0.000  0.000  0.896  0.103  0.001
  0.000  0.000  0.026  0.306  0.668
  0.012  0.987  0.000  0.000  0.000
    occupations:
  0.334  0.000 -0.016  0.024  0.000
  0.000  0.170  0.000 -0.000  0.010
 -0.016  0.000  0.273  0.007  0.000
  0.024 -0.000  0.007  0.352  0.000
  0.000  0.010  0.000  0.000  0.264
atom    4   Tr[ns(na)] =   2.78533
    eigenvalues: 
  0.169  0.265  0.267  0.323  0.369
    eigenvectors:
  0.000  0.000  0.078  0.591  0.331
  0.988  0.012  0.000  0.000  0.000
  0.000  0.000  0.896  0.103  0.001
  0.000  0.000  0.026  0.306  0.668
  0.012  0.988  0.000  0.000  0.000
    occupations:
  0.334 -0.000 -0.016  0.024  0.000
 -0.000  0.171 -0.000  0.000  0.011
 -0.016 -0.000  0.273  0.007  0.000
  0.024  0.000  0.007  0.352 -0.000
  0.000  0.011  0.000 -0.000  0.264
atom   15   Tr[ns(na)] =   2.78545
    eigenvalues: 
  0.169  0.265  0.267  0.323  0.369
    eigenvectors:
  0.000  0.000  0.078  0.592  0.330
  0.988  0.012  0.000  0.000  0.000
  0.000  0.000  0.897  0.103  0.001
  0.000  0.000  0.026  0.306  0.669
  0.012  0.988  0.000  0.000  0.000
    occupations:
  0.334 -0.000  0.016  0.024  0.000
 -0.000  0.171 -0.000  0.000 -0.010
  0.016 -0.000  0.273 -0.007  0.000
  0.024  0.000 -0.007  0.352 -0.000
  0.000 -0.010  0.000 -0.000  0.264
atom   16   Tr[ns(na)] =   2.78461
    eigenvalues: 
  0.169  0.265  0.267  0.323  0.369
    eigenvectors:
  0.000  0.000  0.078  0.592  0.330
  0.988  0.012  0.000  0.000  0.000
  0.000  0.000  0.897  0.102  0.001
  0.000  0.000  0.026  0.306  0.669
  0.012  0.988  0.000  0.000  0.000
    occupations:
  0.334 -0.000  0.016  0.024 -0.000
 -0.000  0.171  0.000  0.000 -0.011
  0.016  0.000  0.272 -0.007 -0.000
  0.024  0.000 -0.007  0.352 -0.000
 -0.000 -0.011 -0.000 -0.000  0.264
atom   17   Tr[ns(na)] =   2.78461
    eigenvalues: 
  0.169  0.265  0.267  0.323  0.369
    eigenvectors:
  0.000  0.000  0.078  0.592  0.330
  0.988  0.012  0.000  0.000  0.000
  0.000  0.000  0.897  0.102  0.001
  0.000  0.000  0.026  0.306  0.669
  0.012  0.988  0.000  0.000  0.000
    occupations:
  0.334  0.000 -0.016  0.024 -0.000
  0.000  0.171  0.000 -0.000  0.011
 -0.016  0.000  0.272  0.007  0.000
  0.024 -0.000  0.007  0.352 -0.000
 -0.000  0.011  0.000 -0.000  0.264
atom   18   Tr[ns(na)] =   2.78545
    eigenvalues: 
  0.169  0.265  0.267  0.323  0.369
    eigenvectors:
  0.000  0.000  0.078  0.592  0.330
  0.988  0.012  0.000  0.000  0.000
  0.000  0.000  0.897  0.103  0.001
  0.000  0.000  0.026  0.306  0.669
  0.012  0.988  0.000  0.000  0.000
    occupations:
  0.334 -0.000 -0.016  0.024  0.000
 -0.000  0.171 -0.000  0.000  0.010
 -0.016 -0.000  0.273  0.007  0.000
  0.024  0.000  0.007  0.352 -0.000
  0.000  0.010  0.000 -0.000  0.264
atom   29   Tr[ns(na)] =   2.78578
    eigenvalues: 
  0.169  0.265  0.267  0.323  0.369
    eigenvectors:
  0.000  0.000  0.078  0.591  0.331
  0.988  0.012  0.000  0.000  0.000
  0.000  0.000  0.897  0.102  0.001
  0.000  0.000  0.026  0.307  0.668
  0.012  0.988  0.000  0.000  0.000
    occupations:
  0.334 -0.000  0.016  0.024  0.000
 -0.000  0.171 -0.000  0.000 -0.011
  0.016 -0.000  0.273 -0.007  0.000
  0.024  0.000 -0.007  0.352 -0.000
  0.000 -0.011  0.000 -0.000  0.264
atom   30   Tr[ns(na)] =   2.78465
    eigenvalues: 
  0.169  0.265  0.267  0.323  0.369
    eigenvectors:
  0.000  0.000  0.078  0.591  0.331
  0.988  0.012  0.000  0.000  0.000
  0.000  0.000  0.896  0.103  0.001
  0.000  0.000  0.026  0.306  0.668
  0.012  0.987  0.000  0.000  0.000
    occupations:
  0.334  0.000  0.016  0.024 -0.000
  0.000  0.170 -0.000 -0.000 -0.010
  0.016 -0.000  0.273 -0.007  0.000
  0.024 -0.000 -0.007  0.352 -0.000
 -0.000 -0.010  0.000 -0.000  0.264
atom   31   Tr[ns(na)] =   2.78465
    eigenvalues: 
  0.169  0.265  0.267  0.323  0.369
    eigenvectors:
  0.000  0.000  0.078  0.591  0.331
  0.988  0.012  0.000  0.000  0.000
  0.000  0.000  0.896  0.103  0.001
  0.000  0.000  0.026  0.306  0.668
  0.012  0.987  0.000  0.000  0.000
    occupations:
  0.334 -0.000 -0.016  0.024 -0.000
 -0.000  0.170 -0.000  0.000  0.010
 -0.016 -0.000  0.273  0.007 -0.000
  0.024  0.000  0.007  0.352 -0.000
 -0.000  0.010 -0.000 -0.000  0.264
atom   32   Tr[ns(na)] =   2.78578
    eigenvalues: 
  0.169  0.265  0.267  0.323  0.369
    eigenvectors:
  0.000  0.000  0.078  0.591  0.331
  0.988  0.012  0.000  0.000  0.000
  0.000  0.000  0.897  0.102  0.001
  0.000  0.000  0.026  0.307  0.668
  0.012  0.988  0.000  0.000  0.000
    occupations:
  0.334 -0.000 -0.016  0.024  0.000
 -0.000  0.171 -0.000  0.000  0.011
 -0.016 -0.000  0.273  0.007  0.000
  0.024  0.000  0.007  0.352 -0.000
  0.000  0.011  0.000 -0.000  0.264
atom   43   Tr[ns(na)] =   2.78515
    eigenvalues: 
  0.169  0.265  0.267  0.323  0.369
    eigenvectors:
  0.000  0.000  0.077  0.590  0.332
  0.988  0.012  0.000  0.000  0.000
  0.000  0.000  0.897  0.102  0.001
  0.000  0.000  0.026  0.307  0.667
  0.012  0.988  0.000  0.000  0.000
    occupations:
  0.334 -0.000  0.016  0.024  0.000
 -0.000  0.171 -0.000  0.000 -0.010
  0.016 -0.000  0.273 -0.007  0.000
  0.024  0.000 -0.007  0.352 -0.000
  0.000 -0.010  0.000 -0.000  0.264
atom   44   Tr[ns(na)] =   2.78461
    eigenvalues: 
  0.169  0.265  0.267  0.323  0.369
    eigenvectors:
  0.000  0.000  0.078  0.592  0.330
  0.988  0.012  0.000  0.000  0.000
  0.000  0.000  0.897  0.102  0.001
  0.000  0.000  0.026  0.306  0.669
  0.012  0.988  0.000  0.000  0.000
    occupations:
  0.334  0.000  0.016  0.024  0.000
  0.000  0.171 -0.000 -0.000 -0.011
  0.016 -0.000  0.272 -0.007  0.000
  0.024 -0.000 -0.007  0.352  0.000
  0.000 -0.011  0.000  0.000  0.264
atom   45   Tr[ns(na)] =   2.78461
    eigenvalues: 
  0.169  0.265  0.267  0.323  0.369
    eigenvectors:
  0.000  0.000  0.078  0.592  0.330
  0.988  0.012  0.000  0.000  0.000
  0.000  0.000  0.897  0.102  0.001
  0.000  0.000  0.026  0.306  0.669
  0.012  0.988  0.000  0.000  0.000
    occupations:
  0.334 -0.000 -0.016  0.024  0.000
 -0.000  0.171 -0.000  0.000  0.011
 -0.016 -0.000  0.272  0.007 -0.000
  0.024  0.000  0.007  0.352  0.000
  0.000  0.011 -0.000  0.000  0.264
atom   46   Tr[ns(na)] =   2.78515
    eigenvalues: 
  0.169  0.265  0.267  0.323  0.369
    eigenvectors:
  0.000  0.000  0.077  0.590  0.332
  0.988  0.012  0.000  0.000  0.000
  0.000  0.000  0.897  0.102  0.001
  0.000  0.000  0.026  0.307  0.667
  0.012  0.988  0.000  0.000  0.000
    occupations:
  0.334 -0.000 -0.016  0.024  0.000
 -0.000  0.171 -0.000  0.000  0.010
 -0.016 -0.000  0.273  0.007  0.000
  0.024  0.000  0.007  0.352 -0.000
  0.000  0.010  0.000 -0.000  0.264
N of occupied +U levels =   44.560455
 --- exit write_ns ---

     total cpu time spent up to now is      425.9 secs

     total energy              =   -5062.28629358 Ry
     Harris-Foulkes estimate   =   -5095.42333916 Ry
     estimated scf accuracy    <      40.76226691 Ry

     iteration #  2     ecut=    65.00 Ry     beta= 0.70
     Davidson diagonalization with overlap
     ethr =  9.10E-03,  avg # of iterations =  4.5

     total cpu time spent up to now is     1092.2 secs

     total energy              =   -5021.13830695 Ry
     Harris-Foulkes estimate   =   -5185.85180563 Ry
     estimated scf accuracy    <     763.56882556 Ry

     iteration #  3     ecut=    65.00 Ry     beta= 0.70
     Davidson diagonalization with overlap
     ethr =  9.10E-03,  avg # of iterations =  5.0

     total cpu time spent up to now is     1759.6 secs

     total energy              =   -5088.32721887 Ry
     Harris-Foulkes estimate   =   -5091.61753714 Ry
     estimated scf accuracy    <       9.83109850 Ry

     iteration #  4     ecut=    65.00 Ry     beta= 0.70
     Davidson diagonalization with overlap
     ethr =  2.19E-03,  avg # of iterations =  2.2

     total cpu time spent up to now is     2006.1 secs

     total energy              =   -5088.61680582 Ry
     Harris-Foulkes estimate   =   -5089.07726047 Ry
     estimated scf accuracy    <       2.01315135 Ry

     iteration #  5     ecut=    65.00 Ry     beta= 0.70
     Davidson diagonalization with overlap
     ethr =  4.49E-04,  avg # of iterations =  5.2

     negative rho (up, down):  2.149E-05 0.000E+00

     total cpu time spent up to now is     2498.4 secs

     total energy              =   -5089.31167968 Ry
     Harris-Foulkes estimate   =   -5089.60036784 Ry
     estimated scf accuracy    <       1.01536337 Ry

     iteration #  6     ecut=    65.00 Ry     beta= 0.70
     Davidson diagonalization with overlap
     ethr =  2.27E-04,  avg # of iterations =  1.0

     negative rho (up, down):  1.337E-03 0.000E+00

     total cpu time spent up to now is     2733.6 secs

     total energy              =   -5089.27486134 Ry
     Harris-Foulkes estimate   =   -5089.39085202 Ry
     estimated scf accuracy    <       0.36019313 Ry

     iteration #  7     ecut=    65.00 Ry     beta= 0.70
     Davidson diagonalization with overlap
     ethr =  8.04E-05,  avg # of iterations =  6.0

     negative rho (up, down):  1.274E-03 0.000E+00

     total cpu time spent up to now is     3410.2 secs

     total energy              =   -5089.55272407 Ry
     Harris-Foulkes estimate   =   -5090.18804679 Ry
     estimated scf accuracy    <       4.73586660 Ry

     iteration #  8     ecut=    65.00 Ry     beta= 0.70
     Davidson diagonalization with overlap
     ethr =  8.04E-05,  avg # of iterations = 13.5

     negative rho (up, down):  1.170E-03 0.000E+00

     total cpu time spent up to now is     3797.8 secs

     total energy              =   -5089.15914134 Ry
     Harris-Foulkes estimate   =   -5089.71364311 Ry
     estimated scf accuracy    <       2.20888348 Ry

     iteration #  9     ecut=    65.00 Ry     beta= 0.70
     Davidson diagonalization with overlap
     ethr =  8.04E-05,  avg # of iterations =  6.6

     negative rho (up, down):  1.193E-03 0.000E+00

     total cpu time spent up to now is     4352.0 secs

     total energy              =   -5089.46813712 Ry
     Harris-Foulkes estimate   =   -5089.48296822 Ry
     estimated scf accuracy    <       0.10672872 Ry

     iteration # 10     ecut=    65.00 Ry     beta= 0.70
     Davidson diagonalization with overlap
     ethr =  2.38E-05,  avg # of iterations =  1.4

     negative rho (up, down):  1.198E-03 0.000E+00

     total cpu time spent up to now is     4586.5 secs

     total energy              =   -5089.47267282 Ry
     Harris-Foulkes estimate   =   -5089.47626819 Ry
     estimated scf accuracy    <       0.02149436 Ry

     iteration # 11     ecut=    65.00 Ry     beta= 0.70
     Davidson diagonalization with overlap
     ethr =  4.80E-06,  avg # of iterations =  6.1

     negative rho (up, down):  1.164E-03 0.000E+00

     total cpu time spent up to now is     4946.4 secs

     total energy              =   -5089.47807895 Ry
     Harris-Foulkes estimate   =   -5089.47853846 Ry
     estimated scf accuracy    <       0.00713315 Ry

     iteration # 12     ecut=    65.00 Ry     beta= 0.70
     Davidson diagonalization with overlap
     ethr =  1.59E-06,  avg # of iterations =  7.6

     negative rho (up, down):  1.147E-03 0.000E+00

     total cpu time spent up to now is     5300.8 secs

     total energy              =   -5089.47540255 Ry
     Harris-Foulkes estimate   =   -5089.48042656 Ry
     estimated scf accuracy    <       0.01589138 Ry

     iteration # 13     ecut=    65.00 Ry     beta= 0.70
     Davidson diagonalization with overlap
     ethr =  1.59E-06,  avg # of iterations =  5.0

     negative rho (up, down):  1.156E-03 0.000E+00

     total cpu time spent up to now is     5591.0 secs

     total energy              =   -5089.47712067 Ry
     Harris-Foulkes estimate   =   -5089.47737577 Ry
     estimated scf accuracy    <       0.00122025 Ry

     iteration # 14     ecut=    65.00 Ry     beta= 0.70
     Davidson diagonalization with overlap
     ethr =  2.72E-07,  avg # of iterations =  5.6

     negative rho (up, down):  1.199E-03 0.000E+00

     total cpu time spent up to now is     6057.0 secs

     total energy              =   -5089.47780220 Ry
     Harris-Foulkes estimate   =   -5089.47784582 Ry
     estimated scf accuracy    <       0.00028647 Ry

     iteration # 15     ecut=    65.00 Ry     beta= 0.70
     Davidson diagonalization with overlap
     ethr =  6.39E-08,  avg # of iterations =  3.6

     negative rho (up, down):  1.205E-03 0.000E+00

     total cpu time spent up to now is     6315.3 secs

     total energy              =   -5089.47779836 Ry
     Harris-Foulkes estimate   =   -5089.47785073 Ry
     estimated scf accuracy    <       0.00017089 Ry

     iteration # 16     ecut=    65.00 Ry     beta= 0.70
     Davidson diagonalization with overlap
     ethr =  3.81E-08,  avg # of iterations =  3.9

     negative rho (up, down):  1.217E-03 0.000E+00

     total cpu time spent up to now is     6586.3 secs

     total energy              =   -5089.47781599 Ry
     Harris-Foulkes estimate   =   -5089.47782299 Ry
     estimated scf accuracy    <       0.00003185 Ry

     iteration # 17     ecut=    65.00 Ry     beta= 0.70
     Davidson diagonalization with overlap
     ethr =  7.11E-09,  avg # of iterations =  5.1

     negative rho (up, down):  1.221E-03 0.000E+00

     total cpu time spent up to now is     7042.2 secs

     total energy              =   -5089.47782628 Ry
     Harris-Foulkes estimate   =   -5089.47783009 Ry
     estimated scf accuracy    <       0.00002142 Ry

     iteration # 18     ecut=    65.00 Ry     beta= 0.70
     Davidson diagonalization with overlap
     ethr =  4.78E-09,  avg # of iterations =  1.0

     negative rho (up, down):  1.226E-03 0.000E+00

     total cpu time spent up to now is     7273.5 secs

     total energy              =   -5089.47782674 Ry
     Harris-Foulkes estimate   =   -5089.47782781 Ry
     estimated scf accuracy    <       0.00000746 Ry

     iteration # 19     ecut=    65.00 Ry     beta= 0.70
     Davidson diagonalization with overlap
     ethr =  1.67E-09,  avg # of iterations =  4.0

     negative rho (up, down):  1.228E-03 0.000E+00

     total cpu time spent up to now is     7641.6 secs

     total energy              =   -5089.47782733 Ry
     Harris-Foulkes estimate   =   -5089.47782891 Ry
     estimated scf accuracy    <       0.00000555 Ry

     iteration # 20     ecut=    65.00 Ry     beta= 0.70
     Davidson diagonalization with overlap
     ethr =  1.24E-09,  avg # of iterations =  5.5

     negative rho (up, down):  1.232E-03 0.000E+00

     total cpu time spent up to now is     7925.2 secs

     total energy              =   -5089.47782756 Ry
     Harris-Foulkes estimate   =   -5089.47782940 Ry
     estimated scf accuracy    <       0.00000884 Ry

     iteration # 21     ecut=    65.00 Ry     beta= 0.70
     Davidson diagonalization with overlap
     ethr =  1.24E-09,  avg # of iterations =  2.9

     negative rho (up, down):  1.231E-03 0.000E+00

     total cpu time spent up to now is     8167.8 secs

     total energy              =   -5089.47782800 Ry
     Harris-Foulkes estimate   =   -5089.47782844 Ry
     estimated scf accuracy    <       0.00000222 Ry

     iteration # 22     ecut=    65.00 Ry     beta= 0.70
     Davidson diagonalization with overlap
     ethr =  4.95E-10,  avg # of iterations =  4.5

     negative rho (up, down):  1.231E-03 0.000E+00

     total cpu time spent up to now is     8459.3 secs

     total energy              =   -5089.47782821 Ry
     Harris-Foulkes estimate   =   -5089.47782848 Ry
     estimated scf accuracy    <       0.00000087 Ry

     iteration # 23     ecut=    65.00 Ry     beta= 0.70
     Davidson diagonalization with overlap
     ethr =  1.94E-10,  avg # of iterations =  5.6

     negative rho (up, down):  1.231E-03 0.000E+00

     total cpu time spent up to now is     8834.7 secs

     total energy              =   -5089.47782836 Ry
     Harris-Foulkes estimate   =   -5089.47782855 Ry
     estimated scf accuracy    <       0.00000082 Ry

     iteration # 24     ecut=    65.00 Ry     beta= 0.70
     Davidson diagonalization with overlap
     ethr =  1.84E-10,  avg # of iterations =  1.2

     negative rho (up, down):  1.233E-03 0.000E+00

     total cpu time spent up to now is     9064.3 secs

     total energy              =   -5089.47782838 Ry
     Harris-Foulkes estimate   =   -5089.47782844 Ry
     estimated scf accuracy    <       0.00000029 Ry

     iteration # 25     ecut=    65.00 Ry     beta= 0.70
     Davidson diagonalization with overlap
     ethr =  6.46E-11,  avg # of iterations =  4.1

     negative rho (up, down):  1.232E-03 0.000E+00

     total cpu time spent up to now is     9459.1 secs

     total energy              =   -5089.47782843 Ry
     Harris-Foulkes estimate   =   -5089.47782847 Ry
     estimated scf accuracy    <       0.00000020 Ry

     iteration # 26     ecut=    65.00 Ry     beta= 0.70
     Davidson diagonalization with overlap
     ethr =  4.41E-11,  avg # of iterations =  1.5

     negative rho (up, down):  1.232E-03 0.000E+00

     total cpu time spent up to now is     9694.5 secs

     total energy              =   -5089.47782843 Ry
     Harris-Foulkes estimate   =   -5089.47782844 Ry
     estimated scf accuracy    <       0.00000007 Ry

     iteration # 27     ecut=    65.00 Ry     beta= 0.70
     Davidson diagonalization with overlap
     ethr =  1.46E-11,  avg # of iterations =  4.4

     negative rho (up, down):  1.232E-03 0.000E+00

     total cpu time spent up to now is    10056.8 secs

     total energy              =   -5089.47782844 Ry
     Harris-Foulkes estimate   =   -5089.47782845 Ry
     estimated scf accuracy    <       0.00000005 Ry

     iteration # 28     ecut=    65.00 Ry     beta= 0.70
     Davidson diagonalization with overlap
     ethr =  1.21E-11,  avg # of iterations =  5.6

     negative rho (up, down):  1.232E-03 0.000E+00

     total cpu time spent up to now is    10358.4 secs

     total energy              =   -5089.47782844 Ry
     Harris-Foulkes estimate   =   -5089.47782846 Ry
     estimated scf accuracy    <       0.00000007 Ry

     iteration # 29     ecut=    65.00 Ry     beta= 0.70
     Davidson diagonalization with overlap
     ethr =  1.21E-11,  avg # of iterations =  3.8

     negative rho (up, down):  1.232E-03 0.000E+00

     total cpu time spent up to now is    10601.5 secs

     total energy              =   -5089.47782844 Ry
     Harris-Foulkes estimate   =   -5089.47782845 Ry
     estimated scf accuracy    <       0.00000002 Ry

     iteration # 30     ecut=    65.00 Ry     beta= 0.70
     Davidson diagonalization with overlap
     ethr =  4.06E-12,  avg # of iterations =  4.4

     negative rho (up, down):  1.232E-03 0.000E+00

     total cpu time spent up to now is    10938.4 secs

     total energy              =   -5089.47782845 Ry
     Harris-Foulkes estimate   =   -5089.47782845 Ry
     estimated scf accuracy    <          7.3E-09 Ry

     iteration # 31     ecut=    65.00 Ry     beta= 0.70
     Davidson diagonalization with overlap
     ethr =  1.63E-12,  avg # of iterations =  6.1

     negative rho (up, down):  1.232E-03 0.000E+00

     total cpu time spent up to now is    11198.2 secs

     total energy              =   -5089.47782845 Ry
     Harris-Foulkes estimate   =   -5089.47782845 Ry
     estimated scf accuracy    <          3.4E-09 Ry

     iteration # 32     ecut=    65.00 Ry     beta= 0.70
     Davidson diagonalization with overlap
     ethr =  7.66E-13,  avg # of iterations =  4.5

     negative rho (up, down):  1.232E-03 0.000E+00

     total cpu time spent up to now is    11523.0 secs

     total energy              =   -5089.47782845 Ry
     Harris-Foulkes estimate   =   -5089.47782845 Ry
     estimated scf accuracy    <          2.5E-09 Ry

     iteration # 33     ecut=    65.00 Ry     beta= 0.70
     Davidson diagonalization with overlap
     ethr =  5.58E-13,  avg # of iterations =  3.6

     negative rho (up, down):  1.232E-03 0.000E+00

     total cpu time spent up to now is    11767.9 secs

     total energy              =   -5089.47782845 Ry
     Harris-Foulkes estimate   =   -5089.47782845 Ry
     estimated scf accuracy    <          3.3E-10 Ry

     iteration # 34     ecut=    65.00 Ry     beta= 0.70
     Davidson diagonalization with overlap
     ethr =  1.00E-13,  avg # of iterations =  4.9

     negative rho (up, down):  1.232E-03 0.000E+00

     total cpu time spent up to now is    12258.6 secs

     total energy              =   -5089.47782845 Ry
     Harris-Foulkes estimate   =   -5089.47782845 Ry
     estimated scf accuracy    <          1.3E-09 Ry

     iteration # 35     ecut=    65.00 Ry     beta= 0.70
     Davidson diagonalization with overlap
     ethr =  1.00E-13,  avg # of iterations =  1.1

     negative rho (up, down):  1.232E-03 0.000E+00

     total cpu time spent up to now is    12489.8 secs

     total energy              =   -5089.47782845 Ry
     Harris-Foulkes estimate   =   -5089.47782845 Ry
     estimated scf accuracy    <          3.8E-10 Ry

     iteration # 36     ecut=    65.00 Ry     beta= 0.70
     Davidson diagonalization with overlap
     ethr =  1.00E-13,  avg # of iterations =  4.1

     negative rho (up, down):  1.232E-03 0.000E+00

     total cpu time spent up to now is    12796.4 secs

     End of self-consistent calculation
 --- enter write_ns ---
 LDA+U parameters:
U( 1)     =  4.00000000
alpha( 1) =  0.00000000
atom    1   Tr[ns(na)] =   4.57455
    eigenvalues: 
  0.302  0.471  0.475  0.494  0.546
    eigenvectors:
  0.000  0.000  0.143  0.546  0.311
  1.000  0.000  0.000  0.000  0.000
  0.000  0.000  0.770  0.228  0.001
  0.000  0.000  0.086  0.226  0.688
  0.000  1.000  0.000  0.000  0.000
    occupations:
  0.507 -0.000  0.005  0.026  0.000
 -0.000  0.302 -0.000  0.000 -0.001
  0.005 -0.000  0.479 -0.007  0.000
  0.026  0.000 -0.007  0.528 -0.000
  0.000 -0.001  0.000 -0.000  0.471
atom    2   Tr[ns(na)] =   4.57461
    eigenvalues: 
  0.302  0.471  0.475  0.494  0.546
    eigenvectors:
  0.000  0.000  0.144  0.545  0.311
  1.000  0.000  0.000  0.000  0.000
  0.000  0.000  0.770  0.228  0.001
  0.000  0.000  0.086  0.226  0.688
  0.000  1.000  0.000  0.000  0.000
    occupations:
  0.507  0.000  0.005  0.026 -0.000
  0.000  0.302  0.000 -0.000 -0.001
  0.005  0.000  0.479 -0.007  0.000
  0.026 -0.000 -0.007  0.528 -0.000
 -0.000 -0.001  0.000 -0.000  0.471
atom    3   Tr[ns(na)] =   4.57461
    eigenvalues: 
  0.302  0.471  0.475  0.494  0.546
    eigenvectors:
  0.000  0.000  0.144  0.545  0.311
  1.000  0.000  0.000  0.000  0.000
  0.000  0.000  0.770  0.228  0.001
  0.000  0.000  0.086  0.226  0.688
  0.000  1.000  0.000  0.000  0.000
    occupations:
  0.507 -0.000 -0.005  0.026 -0.000
 -0.000  0.302  0.000  0.000  0.001
 -0.005  0.000  0.479  0.007 -0.000
  0.026  0.000  0.007  0.528 -0.000
 -0.000  0.001 -0.000 -0.000  0.471
atom    4   Tr[ns(na)] =   4.57455
    eigenvalues: 
  0.302  0.471  0.475  0.494  0.546
    eigenvectors:
  0.000  0.000  0.143  0.546  0.311
  1.000  0.000  0.000  0.000  0.000
  0.000  0.000  0.770  0.228  0.001
  0.000  0.000  0.086  0.226  0.688
  0.000  1.000  0.000  0.000  0.000
    occupations:
  0.507 -0.000 -0.005  0.026  0.000
 -0.000  0.302 -0.000  0.000  0.001
 -0.005 -0.000  0.479  0.007  0.000
  0.026  0.000  0.007  0.528 -0.000
  0.000  0.001  0.000 -0.000  0.471
atom   15   Tr[ns(na)] =   4.57460
    eigenvalues: 
  0.302  0.471  0.475  0.494  0.546
    eigenvectors:
  0.000  0.000  0.144  0.545  0.311
  1.000  0.000  0.000  0.000  0.000
  0.000  0.000  0.770  0.228  0.001
  0.000  0.000  0.086  0.226  0.688
  0.000  1.000  0.000  0.000  0.000
    occupations:
  0.507 -0.000  0.005  0.026  0.000
 -0.000  0.302 -0.000  0.000 -0.001
  0.005 -0.000  0.479 -0.007  0.000
  0.026  0.000 -0.007  0.528 -0.000
  0.000 -0.001  0.000 -0.000  0.471
atom   16   Tr[ns(na)] =   4.57456
    eigenvalues: 
  0.302  0.471  0.475  0.494  0.546
    eigenvectors:
  0.000  0.000  0.143  0.546  0.311
  1.000  0.000  0.000  0.000  0.000
  0.000  0.000  0.770  0.228  0.001
  0.000  0.000  0.086  0.226  0.688
  0.000  1.000  0.000  0.000  0.000
    occupations:
  0.507  0.000  0.005  0.026 -0.000
  0.000  0.302 -0.000 -0.000 -0.001
  0.005 -0.000  0.479 -0.007 -0.000
  0.026 -0.000 -0.007  0.528 -0.000
 -0.000 -0.001 -0.000 -0.000  0.471
atom   17   Tr[ns(na)] =   4.57456
    eigenvalues: 
  0.302  0.471  0.475  0.494  0.546
    eigenvectors:
  0.000  0.000  0.143  0.546  0.311
  1.000  0.000  0.000  0.000  0.000
  0.000  0.000  0.770  0.228  0.001
  0.000  0.000  0.086  0.226  0.688
  0.000  1.000  0.000  0.000  0.000
    occupations:
  0.507 -0.000 -0.005  0.026 -0.000
 -0.000  0.302 -0.000  0.000  0.001
 -0.005 -0.000  0.479  0.007  0.000
  0.026  0.000  0.007  0.528 -0.000
 -0.000  0.001  0.000 -0.000  0.471
atom   18   Tr[ns(na)] =   4.57460
    eigenvalues: 
  0.302  0.471  0.475  0.494  0.546
    eigenvectors:
  0.000  0.000  0.144  0.545  0.311
  1.000  0.000  0.000  0.000  0.000
  0.000  0.000  0.770  0.228  0.001
  0.000  0.000  0.086  0.226  0.688
  0.000  1.000  0.000  0.000  0.000
    occupations:
  0.507 -0.000 -0.005  0.026  0.000
 -0.000  0.302 -0.000  0.000  0.001
 -0.005 -0.000  0.479  0.007  0.000
  0.026  0.000  0.007  0.528 -0.000
  0.000  0.001  0.000 -0.000  0.471
atom   29   Tr[ns(na)] =   4.57456
    eigenvalues: 
  0.302  0.471  0.475  0.494  0.546
    eigenvectors:
  0.000  0.000  0.143  0.546  0.311
  1.000  0.000  0.000  0.000  0.000
  0.000  0.000  0.770  0.228  0.001
  0.000  0.000  0.086  0.226  0.688
  0.000  1.000  0.000  0.000  0.000
    occupations:
  0.507 -0.000  0.005  0.026  0.000
 -0.000  0.302 -0.000  0.000 -0.001
  0.005 -0.000  0.479 -0.007  0.000
  0.026  0.000 -0.007  0.528 -0.000
  0.000 -0.001  0.000 -0.000  0.471
atom   30   Tr[ns(na)] =   4.57461
    eigenvalues: 
  0.302  0.471  0.475  0.494  0.546
    eigenvectors:
  0.000  0.000  0.144  0.545  0.311
  1.000  0.000  0.000  0.000  0.000
  0.000  0.000  0.770  0.228  0.001
  0.000  0.000  0.086  0.226  0.688
  0.000  1.000  0.000  0.000  0.000
    occupations:
  0.507 -0.000  0.005  0.026  0.000
 -0.000  0.302 -0.000  0.000 -0.001
  0.005 -0.000  0.479 -0.007 -0.000
  0.026  0.000 -0.007  0.528  0.000
  0.000 -0.001 -0.000  0.000  0.471
atom   31   Tr[ns(na)] =   4.57461
    eigenvalues: 
  0.302  0.471  0.475  0.494  0.546
    eigenvectors:
  0.000  0.000  0.144  0.545  0.311
  1.000  0.000  0.000  0.000  0.000
  0.000  0.000  0.770  0.228  0.001
  0.000  0.000  0.086  0.226  0.688
  0.000  1.000  0.000  0.000  0.000
    occupations:
  0.507  0.000 -0.005  0.026  0.000
  0.000  0.302 -0.000 -0.000  0.001
 -0.005 -0.000  0.479  0.007  0.000
  0.026 -0.000  0.007  0.528  0.000
  0.000  0.001  0.000  0.000  0.471
atom   32   Tr[ns(na)] =   4.57456
    eigenvalues: 
  0.302  0.471  0.475  0.494  0.546
    eigenvectors:
  0.000  0.000  0.143  0.546  0.311
  1.000  0.000  0.000  0.000  0.000
  0.000  0.000  0.770  0.228  0.001
  0.000  0.000  0.086  0.226  0.688
  0.000  1.000  0.000  0.000  0.000
    occupations:
  0.507 -0.000 -0.005  0.026  0.000
 -0.000  0.302 -0.000  0.000  0.001
 -0.005 -0.000  0.479  0.007  0.000
  0.026  0.000  0.007  0.528 -0.000
  0.000  0.001  0.000 -0.000  0.471
atom   43   Tr[ns(na)] =   4.57460
    eigenvalues: 
  0.302  0.471  0.475  0.494  0.546
    eigenvectors:
  0.000  0.000  0.144  0.545  0.311
  1.000  0.000  0.000  0.000  0.000
  0.000  0.000  0.770  0.228  0.001
  0.000  0.000  0.086  0.226  0.688
  0.000  1.000  0.000  0.000  0.000
    occupations:
  0.507 -0.000  0.005  0.026  0.000
 -0.000  0.302 -0.000  0.000 -0.001
  0.005 -0.000  0.479 -0.007  0.000
  0.026  0.000 -0.007  0.528 -0.000
  0.000 -0.001  0.000 -0.000  0.471
atom   44   Tr[ns(na)] =   4.57456
    eigenvalues: 
  0.302  0.471  0.475  0.494  0.546
    eigenvectors:
  0.000  0.000  0.143  0.546  0.311
  1.000  0.000  0.000  0.000  0.000
  0.000  0.000  0.770  0.228  0.001
  0.000  0.000  0.086  0.226  0.688
  0.000  1.000  0.000  0.000  0.000
    occupations:
  0.507 -0.000  0.005  0.026  0.000
 -0.000  0.302  0.000  0.000 -0.001
  0.005  0.000  0.479 -0.007  0.000
  0.026  0.000 -0.007  0.528  0.000
  0.000 -0.001  0.000  0.000  0.471
atom   45   Tr[ns(na)] =   4.57456
    eigenvalues: 
  0.302  0.471  0.475  0.494  0.546
    eigenvectors:
  0.000  0.000  0.143  0.546  0.311
  1.000  0.000  0.000  0.000  0.000
  0.000  0.000  0.770  0.228  0.001
  0.000  0.000  0.086  0.226  0.688
  0.000  1.000  0.000  0.000  0.000
    occupations:
  0.507  0.000 -0.005  0.026  0.000
  0.000  0.302  0.000 -0.000  0.001
 -0.005  0.000  0.479  0.007 -0.000
  0.026 -0.000  0.007  0.528  0.000
  0.000  0.001 -0.000  0.000  0.471
atom   46   Tr[ns(na)] =   4.57460
    eigenvalues: 
  0.302  0.471  0.475  0.494  0.546
    eigenvectors:
  0.000  0.000  0.144  0.545  0.311
  1.000  0.000  0.000  0.000  0.000
  0.000  0.000  0.770  0.228  0.001
  0.000  0.000  0.086  0.226  0.688
  0.000  1.000  0.000  0.000  0.000
    occupations:
  0.507 -0.000 -0.005  0.026  0.000
 -0.000  0.302 -0.000  0.000  0.001
 -0.005 -0.000  0.479  0.007  0.000
  0.026  0.000  0.007  0.528 -0.000
  0.000  0.001  0.000 -0.000  0.471
N of occupied +U levels =   73.193285
 --- exit write_ns ---

          k = 0.0000 0.0000 0.0000 ( 43483 PWs)   bands (ev):

   -60.1044 -60.1041 -60.1021 -60.1021 -60.0951 -60.0951 -60.0946 -60.0946
   -60.0934 -60.0934 -60.0930 -60.0930 -60.0928 -60.0927 -60.0910 -60.0908
   -34.0556 -34.0536 -34.0475 -34.0447 -34.0418 -34.0393 -34.0393 -34.0368
   -34.0368 -34.0368 -34.0363 -34.0363 -34.0335 -34.0335 -34.0335 -34.0285
   -34.0249 -34.0249 -34.0246 -34.0246 -34.0229 -34.0228 -33.9974 -33.9974
   -33.9972 -33.9972 -33.9801 -33.9793 -33.9518 -33.9517 -33.9396 -33.9396
   -33.9395 -33.9395 -33.9376 -33.9373 -33.9352 -33.9348 -33.9151 -33.9151
   -33.9150 -33.9150 -33.9075 -33.9075 -33.9025 -33.9024 -33.9003 -33.9002
   -13.4663 -13.3560 -13.3371 -13.2398 -12.4732 -12.4732 -12.3906 -12.3906
   -12.3672 -12.2977 -12.2977 -12.2600 -12.2600 -12.2543 -12.2358 -12.1871
   -12.1351 -12.1286 -12.0961 -12.0493 -12.0443 -12.0443 -12.0025 -12.0025
   -11.8976 -11.8881 -11.8693 -11.8571 -11.8156 -11.8156 -11.7587 -11.7587
   -11.7319 -11.7319 -11.7272 -11.7000 -11.7000 -11.6871 -11.6681 -11.6299
    -0.3557  -0.3557  -0.3391  -0.3391  -0.3369  -0.2507  -0.2388  -0.2388
    -0.2365  -0.2365  -0.2356  -0.2231  -0.1902  -0.1833  -0.1326  -0.1097
    -0.1051  -0.0669   0.0234   0.0234   0.0316   0.1150   0.1150   0.2855
     0.3012   0.3775   0.3775   0.4996   0.5106   0.5106   0.5384   0.5911
     0.5911   0.6225   0.8555   0.8944   0.8944   1.1195   1.1195   1.1418
     1.1659   1.1659   1.2331   1.2931   1.2931   1.3558   1.3831   1.3831
     1.4303   1.4385   1.4862   1.6693   1.6693   1.6926   1.6926   1.7534
     1.7534   1.7793   1.7928   1.7928   1.8057   1.8319   1.8393   1.9137
     1.9261   1.9644   2.0593   2.0593   2.0694   2.1262   2.2118   2.2118
     2.2725   2.3238   2.3735   2.3735   2.3857   2.3874   2.5602   2.5704
     2.5801   2.5843   2.6118   2.6411   2.6565   2.6565   2.7253   2.8833
     2.8973   2.9135   2.9135   3.0535   3.0704   3.0704   3.1352   3.1369
     3.1469   3.1469   3.1557   3.1714   3.2422   3.3289   3.3592   3.3667
     3.3969   3.3969   3.4709   3.4778   3.5311   3.5885   3.5885   3.7669
     3.8160   3.8776   3.8776   3.9546   3.9671   3.9671   4.0911   4.0911
     6.3373   6.4077   6.4657   6.5277   6.7408   6.7408   6.7626   6.7626
     7.2491   7.2491   7.3014   7.3530   7.3530   7.4225   7.4297   7.5310
     7.5310   7.5530   7.5801   7.5835   7.6116   7.6116   7.6229   7.6639
     7.6869   7.6947   7.6947   7.6971   7.6971   7.7000   7.9417   7.9732
     8.0698   8.0698   8.1119   8.1864   8.1864   8.1985   8.2031   8.2031
     8.3729   8.3729   8.3967   8.3967   8.5260

          k = 0.0000 0.0000-0.3100 ( 43572 PWs)   bands (ev):

   -60.1034 -60.1034 -60.1031 -60.1031 -60.0951 -60.0951 -60.0946 -60.0946
   -60.0934 -60.0934 -60.0930 -60.0930 -60.0918 -60.0918 -60.0917 -60.0917
   -34.0512 -34.0512 -34.0489 -34.0489 -34.0390 -34.0390 -34.0387 -34.0387
   -34.0374 -34.0374 -34.0357 -34.0357 -34.0343 -34.0343 -34.0341 -34.0341
   -34.0240 -34.0240 -34.0238 -34.0238 -34.0063 -34.0063 -34.0062 -34.0062
   -33.9990 -33.9990 -33.9988 -33.9988 -33.9383 -33.9383 -33.9382 -33.9382
   -33.9364 -33.9364 -33.9362 -33.9362 -33.9238 -33.9238 -33.9236 -33.9236
   -33.9158 -33.9158 -33.9156 -33.9156 -33.9014 -33.9014 -33.9013 -33.9013
   -13.4061 -13.4061 -13.3013 -13.3013 -12.4665 -12.4665 -12.3832 -12.3832
   -12.3093 -12.3093 -12.2917 -12.2917 -12.2710 -12.2710 -12.2101 -12.2101
   -12.1191 -12.1191 -12.0967 -12.0967 -12.0390 -12.0390 -11.9989 -11.9989
   -11.8913 -11.8913 -11.8735 -11.8735 -11.8160 -11.8160 -11.7588 -11.7588
   -11.7319 -11.7319 -11.7012 -11.7012 -11.7000 -11.7000 -11.6476 -11.6476
    -0.3467  -0.3467  -0.3402  -0.3402  -0.3218  -0.3218  -0.2449  -0.2449
    -0.2368  -0.2368  -0.1892  -0.1892  -0.1868  -0.1868  -0.1542  -0.1542
    -0.1074  -0.1074  -0.0158  -0.0158   0.1065   0.1065   0.2944   0.2944
     0.3511   0.3511   0.3988   0.3988   0.4435   0.4435   0.5390   0.5390
     0.5547   0.5547   1.0527   1.0527   1.0960   1.0960   1.1702   1.1702
     1.2302   1.2302   1.3317   1.3317   1.3444   1.3444   1.3733   1.3733
     1.3911   1.3911   1.4047   1.4047   1.4525   1.4525   1.4578   1.4578
     1.7585   1.7586   1.8076   1.8076   1.9023   1.9023   2.0613   2.0613
     2.1026   2.1026   2.1053   2.1053   2.2073   2.2073   2.2997   2.2997
     2.3268   2.3268   2.4241   2.4241   2.4630   2.4630   2.4851   2.4851
     2.5252   2.5252   2.5396   2.5396   2.5655   2.5655   2.7145   2.7145
     2.8420   2.8420   2.8512   2.8512   2.8617   2.8617   3.1360   3.1360
     3.1638   3.1638   3.3904   3.3904   3.3963   3.3963   3.3994   3.3994
     3.4183   3.4183   3.4588   3.4588   3.6186   3.6186   3.6409   3.6409
     3.7125   3.7125   3.8860   3.8860   4.0610   4.0610   4.0844   4.0844
     6.3712   6.3712   6.4964   6.4964   6.8321   6.8321   6.8341   6.8341
     7.2366   7.2366   7.3122   7.3122   7.4357   7.4357   7.4679   7.4679
     7.5695   7.5695   7.5892   7.5892   7.6297   7.6297   7.6380   7.6380
     7.6421   7.6421   7.6438   7.6438   7.6499   7.6499   7.7985   7.7985
     8.0088   8.0088   8.1392   8.1392   8.2252   8.2252   8.2843   8.2843
     8.4636   8.4636   8.5441   8.5441   8.5640

          k = 0.0000-0.4061 0.0000 ( 43398 PWs)   bands (ev):

   -60.1042 -60.1042 -60.1021 -60.1021 -60.0951 -60.0951 -60.0947 -60.0947
   -60.0934 -60.0934 -60.0930 -60.0930 -60.0928 -60.0928 -60.0909 -60.0909
   -34.0546 -34.0546 -34.0462 -34.0462 -34.0395 -34.0395 -34.0380 -34.0380
   -34.0376 -34.0376 -34.0353 -34.0353 -34.0349 -34.0349 -34.0310 -34.0310
   -34.0248 -34.0248 -34.0246 -34.0246 -34.0228 -34.0228 -33.9973 -33.9973
   -33.9972 -33.9972 -33.9797 -33.9797 -33.9517 -33.9517 -33.9395 -33.9395
   -33.9395 -33.9395 -33.9374 -33.9374 -33.9350 -33.9350 -33.9151 -33.9151
   -33.9150 -33.9150 -33.9076 -33.9076 -33.9024 -33.9024 -33.9002 -33.9002
   -13.4112 -13.4110 -13.2882 -13.2880 -12.4300 -12.4300 -12.4298 -12.4298
   -12.3092 -12.3090 -12.2773 -12.2773 -12.2772 -12.2772 -12.2093 -12.2092
   -12.1323 -12.1323 -12.0752 -12.0751 -12.0246 -12.0246 -12.0244 -12.0244
   -11.8788 -11.8785 -11.8781 -11.8780 -11.7606 -11.7606 -11.7598 -11.7598
   -11.7474 -11.7474 -11.7468 -11.7468 -11.6817 -11.6810 -11.6785 -11.6779
    -0.3468  -0.3468  -0.3465  -0.3465  -0.2649  -0.2648  -0.2320  -0.2320
    -0.2316  -0.2316  -0.1505  -0.1504  -0.1448  -0.1447  -0.0983  -0.0982
    -0.0621  -0.0618   0.0587   0.0587   0.0589   0.0589   0.2811   0.2821
     0.4425   0.4426   0.6545   0.6545   0.6548   0.6548   0.7001   0.7003
     0.7552   0.7562   0.9002   0.9011   0.9088   0.9088   0.9089   0.9089
     0.9280   0.9280   0.9286   0.9286   1.2307   1.2307   1.2313   1.2313
     1.3613   1.3615   1.5208   1.5214   1.5845   1.5845   1.5858   1.5858
     1.5906   1.5912   1.8325   1.8325   1.8331   1.8331   1.8481   1.8481
     1.8487   1.8487   1.8981   1.8985   1.9579   1.9583   2.3240   2.3243
     2.3829   2.3832   2.4891   2.4892   2.5651   2.5653   2.6140   2.6141
     2.7032   2.7036   2.8110   2.8110   2.8113   2.8113   2.8208   2.8208
     2.8624   2.8624   2.8628   2.8628   3.0854   3.0858   3.1578   3.1579
     3.1581   3.1581   3.2814   3.2814   3.2935   3.2935   3.5041   3.5045
     3.5207   3.5207   3.5214   3.5214   3.6797   3.6801   3.7031   3.7031
     3.7034   3.7034   3.7096   3.7102   3.8273   3.8273   3.8276   3.8276
     6.3931   6.3935   6.4750   6.4754   6.7447   6.7447   6.7448   6.7448
     7.3075   7.3075   7.3079   7.3079   7.3824   7.3827   7.4820   7.4824
     7.5742   7.5746   7.6339   7.6339   7.6343   7.6343   7.6379   7.6382
     7.6812   7.6812   7.6816   7.6816   7.7157   7.7159   8.0562   8.0563
     8.1039   8.1040   8.1936   8.1936   8.1939   8.1939   8.2873   8.2873
     8.2877   8.2877   8.5390   8.5392   8.5790

          k = 0.0000-0.4061-0.3100 ( 43472 PWs)   bands (ev):

   -60.1033 -60.1033 -60.1032 -60.1032 -60.0951 -60.0950 -60.0947 -60.0947
   -60.0934 -60.0934 -60.0930 -60.0930 -60.0918 -60.0918 -60.0917 -60.0917
   -34.0500 -34.0500 -34.0499 -34.0499 -34.0373 -34.0373 -34.0370 -34.0370
   -34.0368 -34.0368 -34.0366 -34.0365 -34.0358 -34.0358 -34.0354 -34.0354
   -34.0241 -34.0241 -34.0239 -34.0239 -34.0062 -34.0062 -34.0062 -34.0062
   -33.9989 -33.9989 -33.9988 -33.9988 -33.9383 -33.9383 -33.9382 -33.9382
   -33.9363 -33.9363 -33.9363 -33.9363 -33.9238 -33.9238 -33.9236 -33.9236
   -33.9158 -33.9157 -33.9156 -33.9156 -33.9013 -33.9013 -33.9013 -33.9013
   -13.3536 -13.3536 -13.3534 -13.3534 -12.4229 -12.4229 -12.4227 -12.4227
   -12.2886 -12.2886 -12.2885 -12.2885 -12.2483 -12.2483 -12.2481 -12.2481
   -12.1095 -12.1095 -12.1094 -12.1094 -12.0201 -12.0201 -12.0200 -12.0200
   -11.8823 -11.8823 -11.8816 -11.8816 -11.7608 -11.7608 -11.7600 -11.7600
   -11.7474 -11.7474 -11.7468 -11.7468 -11.6778 -11.6778 -11.6772 -11.6772
    -0.3402  -0.3402  -0.3398  -0.3398  -0.2421  -0.2421  -0.2418  -0.2418
    -0.2222  -0.2222  -0.2222  -0.2222  -0.1477  -0.1477  -0.1476  -0.1476
     0.0430   0.0430   0.0432   0.0432   0.1235   0.1235   0.1239   0.1239
     0.5715   0.5715   0.5718   0.5718   0.7458   0.7458   0.7462   0.7462
     0.7849   0.7849   0.7855   0.7855   0.8721   0.8722   0.8728   0.8728
     0.9609   0.9609   0.9614   0.9614   1.2789   1.2789   1.2793   1.2793
     1.4828   1.4828   1.4836   1.4836   1.5538   1.5538   1.5545   1.5545
     1.6198   1.6198   1.6203   1.6203   1.6499   1.6499   1.6512   1.6512
     2.0866   2.0866   2.0867   2.0867   2.3841   2.3841   2.3841   2.3841
     2.4568   2.4568   2.4571   2.4571   2.4778   2.4778   2.4782   2.4782
     2.5065   2.5065   2.5067   2.5067   2.6773   2.6773   2.6776   2.6776
     3.1582   3.1582   3.1585   3.1585   3.1631   3.1631   3.1634   3.1634
     3.2000   3.2000   3.2004   3.2004   3.3247   3.3247   3.3254   3.3254
     3.4625   3.4625   3.4630   3.4630   3.6846   3.6846   3.6852   3.6852
     3.7556   3.7556   3.7564   3.7564   3.8333   3.8333   3.8339   3.8339
     6.4326   6.4326   6.4331   6.4331   6.8326   6.8326   6.8326   6.8326
     7.2731   7.2731   7.2734   7.2734   7.5475   7.5475   7.5478   7.5478
     7.5776   7.5776   7.5778   7.5778   7.6065   7.6065   7.6069   7.6069
     7.6501   7.6501   7.6506   7.6506   7.7377   7.7377   7.7379   7.7379
     8.0703   8.0703   8.0706   8.0706   8.3485   8.3485   8.3489   8.3489
     8.5526   8.5526   8.5527   8.5527   8.6016

          k =-0.5000 0.0000 0.0000 ( 43442 PWs)   bands (ev):

   -60.1009 -60.1009 -60.1006 -60.1006 -60.0986 -60.0986 -60.0984 -60.0984
   -60.0927 -60.0927 -60.0925 -60.0925 -60.0912 -60.0911 -60.0911 -60.0911
   -34.0507 -34.0507 -34.0486 -34.0486 -34.0445 -34.0445 -34.0417 -34.0417
   -34.0387 -34.0387 -34.0343 -34.0343 -34.0318 -34.0318 -34.0271 -34.0271
   -34.0228 -34.0228 -34.0226 -34.0226 -33.9898 -33.9898 -33.9898 -33.9898
   -33.9840 -33.9840 -33.9836 -33.9836 -33.9713 -33.9713 -33.9710 -33.9710
   -33.9339 -33.9339 -33.9339 -33.9339 -33.9238 -33.9238 -33.9238 -33.9238
   -33.9152 -33.9152 -33.9151 -33.9151 -33.9046 -33.9046 -33.9046 -33.9046
   -13.1128 -13.1128 -13.0059 -13.0059 -12.9700 -12.9700 -12.8821 -12.8821
   -12.2603 -12.2603 -12.1616 -12.1616 -12.1189 -12.1189 -12.1147 -12.1147
   -12.1031 -12.1031 -12.0951 -12.0951 -12.0637 -12.0637 -12.0212 -12.0212
   -11.8575 -11.8575 -11.8330 -11.8330 -11.8276 -11.8276 -11.8040 -11.8040
   -11.7742 -11.7742 -11.7068 -11.7068 -11.6764 -11.6764 -11.6402 -11.6402
    -0.6421  -0.6421  -0.6358  -0.6358  -0.6001  -0.6001  -0.5956  -0.5956
    -0.1295  -0.1295  -0.0988  -0.0988  -0.0557  -0.0557  -0.0422  -0.0422
     0.0635   0.0635   0.1436   0.1436   0.1730   0.1730   0.3474   0.3474
     0.4243   0.4243   0.5791   0.5791   0.5944   0.5944   0.6161   0.6161
     0.7863   0.7863   0.8680   0.8680   0.9148   0.9148   0.9295   0.9295
     0.9517   0.9517   1.2929   1.2929   1.3495   1.3495   1.4081   1.4081
     1.4343   1.4343   1.5725   1.5725   1.7051   1.7051   1.7434   1.7434
     1.9477   1.9477   2.0186   2.0186   2.0246   2.0246   2.0527   2.0527
     2.0660   2.0660   2.1385   2.1385   2.1674   2.1674   2.1713   2.1713
     2.1845   2.1845   2.1999   2.1999   2.2725   2.2725   2.3170   2.3170
     2.4641   2.4641   2.5801   2.5801   2.6501   2.6501   2.6773   2.6773
     2.7210   2.7210   2.9844   2.9844   2.9876   2.9876   3.1203   3.1203
     3.1256   3.1256   3.3991   3.3991   3.4052   3.4052   3.4149   3.4149
     3.7065   3.7065   3.7253   3.7253   3.7623   3.7623   3.7806   3.7806
     3.8773   3.8773   3.9149   3.9149   3.9282   3.9282   3.9774   3.9774
     6.5637   6.5637   6.6341   6.6341   6.7580   6.7580   6.7600   6.7601
     7.2341   7.2341   7.2733   7.2733   7.3455   7.3455   7.3711   7.3711
     7.4822   7.4822   7.5267   7.5267   7.5304   7.5304   7.5942   7.5942
     7.7015   7.7015   7.7158   7.7158   7.7563   7.7563   7.7662   7.7662
     7.8402   7.8402   7.8856   7.8856   7.9572   7.9572   7.9648   7.9648
     7.9849   7.9849   8.0592   8.0592   8.0838

          k =-0.5000 0.0000-0.3100 ( 43392 PWs)   bands (ev):

   -60.0999 -60.0999 -60.0999 -60.0999 -60.0996 -60.0996 -60.0996 -60.0996
   -60.0918 -60.0918 -60.0918 -60.0918 -60.0917 -60.0917 -60.0917 -60.0917
   -34.0473 -34.0473 -34.0473 -34.0473 -34.0448 -34.0448 -34.0448 -34.0448
   -34.0364 -34.0364 -34.0364 -34.0364 -34.0321 -34.0321 -34.0321 -34.0321
   -34.0096 -34.0096 -34.0096 -34.0096 -34.0093 -34.0093 -34.0093 -34.0093
   -33.9750 -33.9750 -33.9750 -33.9750 -33.9747 -33.9747 -33.9747 -33.9747
   -33.9250 -33.9250 -33.9250 -33.9250 -33.9248 -33.9248 -33.9248 -33.9248
   -33.9122 -33.9122 -33.9122 -33.9122 -33.9122 -33.9122 -33.9122 -33.9122
   -13.0481 -13.0481 -13.0481 -13.0481 -12.9488 -12.9488 -12.9488 -12.9488
   -12.1627 -12.1627 -12.1627 -12.1627 -12.1105 -12.1105 -12.1105 -12.1105
   -12.1037 -12.1037 -12.1037 -12.1037 -12.0825 -12.0825 -12.0825 -12.0825
   -11.8541 -11.8541 -11.8541 -11.8541 -11.8197 -11.8197 -11.8197 -11.8197
   -11.7279 -11.7279 -11.7279 -11.7279 -11.6566 -11.6566 -11.6566 -11.6566
    -0.6414  -0.6414  -0.6414  -0.6414  -0.6021  -0.6021  -0.6021  -0.6021
    -0.1305  -0.1305  -0.1305  -0.1305  -0.0075  -0.0075  -0.0075  -0.0075
     0.0484   0.0484   0.0484   0.0484   0.3541   0.3541   0.3541   0.3541
     0.4926   0.4926   0.4926   0.4926   0.5683   0.5683   0.5683   0.5683
     0.7494   0.7494   0.7494   0.7494   0.9055   0.9055   0.9055   0.9055
     1.1579   1.1579   1.1579   1.1579   1.3764   1.3764   1.3764   1.3764
     1.4546   1.4546   1.4546   1.4546   1.9109   1.9109   1.9109   1.9109
     1.9882   1.9882   1.9882   1.9882   2.0709   2.0709   2.0709   2.0709
     2.0820   2.0820   2.0820   2.0820   2.1687   2.1687   2.1687   2.1687
     2.2413   2.2413   2.2413   2.2413   2.2752   2.2752   2.2752   2.2752
     2.5096   2.5096   2.5096   2.5096   2.5777   2.5777   2.5777   2.5777
     2.6724   2.6724   2.6724   2.6724   3.2006   3.2006   3.2006   3.2006
     3.2412   3.2412   3.2412   3.2412   3.4199   3.4199   3.4199   3.4199
     3.7162   3.7162   3.7162   3.7162   3.7192   3.7192   3.7192   3.7192
     3.9236   3.9236   3.9236   3.9236   3.9735   3.9735   3.9735   3.9735
     6.6938   6.6938   6.6938   6.6938   6.7037   6.7037   6.7037   6.7037
     7.2743   7.2743   7.2743   7.2743   7.4189   7.4189   7.4189   7.4189
     7.4688   7.4688   7.4688   7.4688   7.5855   7.5855   7.5855   7.5855
     7.6268   7.6268   7.6268   7.6269   7.8209   7.8209   7.8209   7.8209
     7.8739   7.8739   7.8739   7.8739   7.9111   7.9111   7.9111   7.9111
     8.0020   8.0020   8.0020   8.0020   8.0567

          k =-0.5000-0.4061 0.0000 ( 43484 PWs)   bands (ev):

   -60.1007 -60.1007 -60.1007 -60.1007 -60.0985 -60.0985 -60.0985 -60.0985
   -60.0926 -60.0926 -60.0926 -60.0926 -60.0911 -60.0911 -60.0911 -60.0911
   -34.0496 -34.0496 -34.0496 -34.0496 -34.0431 -34.0431 -34.0431 -34.0431
   -34.0367 -34.0367 -34.0366 -34.0366 -34.0295 -34.0295 -34.0295 -34.0295
   -34.0226 -34.0226 -34.0226 -34.0226 -33.9898 -33.9898 -33.9898 -33.9898
   -33.9839 -33.9839 -33.9839 -33.9839 -33.9712 -33.9712 -33.9712 -33.9712
   -33.9339 -33.9339 -33.9339 -33.9339 -33.9238 -33.9238 -33.9238 -33.9238
   -33.9152 -33.9152 -33.9152 -33.9152 -33.9046 -33.9046 -33.9046 -33.9046
   -13.0591 -13.0591 -13.0590 -13.0590 -12.9255 -12.9254 -12.9253 -12.9253
   -12.2069 -12.2069 -12.2067 -12.2067 -12.1136 -12.1136 -12.1136 -12.1136
   -12.1037 -12.1037 -12.1037 -12.1037 -12.0441 -12.0441 -12.0440 -12.0440
   -11.8324 -11.8324 -11.8317 -11.8317 -11.8308 -11.8308 -11.8303 -11.8303
   -11.7097 -11.7097 -11.7090 -11.7090 -11.6934 -11.6934 -11.6928 -11.6928
    -0.6205  -0.6205  -0.6205  -0.6205  -0.6160  -0.6160  -0.6159  -0.6159
    -0.0931  -0.0931  -0.0930  -0.0930   0.0678   0.0678   0.0679   0.0679
     0.1320   0.1320   0.1322   0.1322   0.4189   0.4189   0.4198   0.4198
     0.5932   0.5932   0.5936   0.5936   0.6914   0.6914   0.6916   0.6916
     0.7008   0.7008   0.7012   0.7012   0.9071   0.9071   0.9077   0.9077
     0.9757   0.9757   0.9764   0.9764   1.0643   1.0643   1.0647   1.0647
     1.4671   1.4671   1.4672   1.4672   1.7538   1.7538   1.7541   1.7541
     1.7934   1.7934   1.7938   1.7938   1.8238   1.8238   1.8242   1.8242
     2.1205   2.1205   2.1206   2.1206   2.1612   2.1612   2.1613   2.1613
     2.2009   2.2009   2.2011   2.2011   2.4809   2.4809   2.4811   2.4811
     2.6145   2.6145   2.6147   2.6147   2.7669   2.7669   2.7669   2.7669
     2.9373   2.9373   2.9375   2.9375   3.0669   3.0669   3.0670   3.0670
     3.4718   3.4718   3.4723   3.4723   3.4745   3.4745   3.4751   3.4751
     3.6109   3.6109   3.6111   3.6111   3.6904   3.6904   3.6911   3.6911
     3.7975   3.7975   3.7975   3.7975   3.8647   3.8647   3.8647   3.8647
     6.6063   6.6063   6.6063   6.6063   6.7602   6.7602   6.7602   6.7602
     7.3267   7.3267   7.3269   7.3269   7.3504   7.3504   7.3508   7.3508
     7.4323   7.4323   7.4326   7.4326   7.6669   7.6669   7.6674   7.6674
     7.6714   7.6714   7.6717   7.6717   7.7328   7.7328   7.7329   7.7329
     7.9216   7.9216   7.9220   7.9220   7.9642   7.9642   7.9645   7.9645
     8.0255   8.0255   8.0257   8.0257   8.1759

          k =-0.5000-0.4061-0.3100 ( 43472 PWs)   bands (ev):

   -60.0998 -60.0998 -60.0998 -60.0998 -60.0997 -60.0997 -60.0997 -60.0997
   -60.0918 -60.0918 -60.0918 -60.0918 -60.0917 -60.0917 -60.0917 -60.0917
   -34.0461 -34.0461 -34.0461 -34.0461 -34.0460 -34.0460 -34.0460 -34.0460
   -34.0345 -34.0344 -34.0344 -34.0344 -34.0342 -34.0342 -34.0342 -34.0342
   -34.0095 -34.0095 -34.0095 -34.0095 -34.0095 -34.0095 -34.0095 -34.0095
   -33.9748 -33.9748 -33.9748 -33.9748 -33.9748 -33.9748 -33.9748 -33.9748
   -33.9251 -33.9251 -33.9251 -33.9251 -33.9249 -33.9249 -33.9249 -33.9249
   -33.9123 -33.9123 -33.9123 -33.9123 -33.9122 -33.9122 -33.9122 -33.9122
   -12.9980 -12.9980 -12.9980 -12.9980 -12.9979 -12.9979 -12.9979 -12.9979
   -12.1217 -12.1217 -12.1217 -12.1217 -12.1215 -12.1215 -12.1215 -12.1215
   -12.1068 -12.1068 -12.1068 -12.1068 -12.1068 -12.1068 -12.1068 -12.1068
   -11.8350 -11.8350 -11.8350 -11.8350 -11.8344 -11.8344 -11.8344 -11.8344
   -11.6981 -11.6981 -11.6981 -11.6981 -11.6974 -11.6974 -11.6974 -11.6974
    -0.6213  -0.6213  -0.6213  -0.6213  -0.6213  -0.6213  -0.6213  -0.6213
    -0.0443  -0.0443  -0.0443  -0.0443  -0.0442  -0.0442  -0.0442  -0.0442
     0.3248   0.3249   0.3249   0.3249   0.3253   0.3253   0.3253   0.3253
     0.5749   0.5749   0.5749   0.5749   0.5754   0.5754   0.5754   0.5754
     0.8794   0.8794   0.8794   0.8794   0.8798   0.8798   0.8798   0.8798
     0.9818   0.9818   0.9818   0.9818   0.9824   0.9824   0.9824   0.9824
     1.5126   1.5126   1.5126   1.5126   1.5136   1.5136   1.5136   1.5136
     2.0151   2.0151   2.0151   2.0151   2.0153   2.0153   2.0154   2.0154
     2.1435   2.1435   2.1435   2.1435   2.1437   2.1437   2.1437   2.1437
     2.2799   2.2799   2.2799   2.2799   2.2800   2.2800   2.2800   2.2800
     2.6202   2.6202   2.6202   2.6202   2.6204   2.6204   2.6204   2.6204
     3.0108   3.0108   3.0108   3.0108   3.0111   3.0111   3.0111   3.0111
     3.4956   3.4956   3.4956   3.4956   3.4958   3.4958   3.4958   3.4958
     3.6426   3.6426   3.6426   3.6426   3.6432   3.6432   3.6432   3.6432
     3.8359   3.8359   3.8359   3.8359   3.8362   3.8362   3.8362   3.8362
     6.7023   6.7023   6.7023   6.7023   6.7026   6.7026   6.7026   6.7026
     7.3750   7.3750   7.3750   7.3750   7.3753   7.3753   7.3753   7.3753
     7.5050   7.5050   7.5050   7.5050   7.5053   7.5053   7.5053   7.5053
     7.7481   7.7481   7.7481   7.7481   7.7485   7.7485   7.7485   7.7485
     7.9038   7.9038   7.9038   7.9038   7.9042   7.9042   7.9042   7.9042
     8.0471   8.0471   8.0473   8.0474   8.0474

     the Fermi energy is     5.2602 ev

!    total energy              =   -5089.47782845 Ry
     Harris-Foulkes estimate   =   -5089.47782845 Ry
     estimated scf accuracy    <          9.7E-11 Ry

     total all-electron energy =    -36396.893497 Ry

     The total energy is the sum of the following terms:

     one-electron contribution =   -2319.15856107 Ry
     hartree contribution      =    1332.41507009 Ry
     xc contribution           =    -619.30742510 Ry
     ewald contribution        =   -1987.00439909 Ry
     Dispersion Correction     =      -0.52269192 Ry
     Hubbard energy            =       5.67731756 Ry
     one-center paw contrib.   =   -1501.56720840 Ry
     smearing contrib. (-TS)   =      -0.00993052 Ry

     convergence has been achieved in  36 iterations

     negative rho (up, down):  1.232E-03 0.000E+00

     Forces acting on atoms (cartesian axes, Ry/au):

     atom    1 type  1   force =     0.00000000   -0.00814476    0.00117760
     atom    2 type  1   force =     0.00000007    0.00811271   -0.00118264
     atom    3 type  1   force =     0.00000007    0.00811271    0.00118264
     atom    4 type  1   force =     0.00000000   -0.00814476   -0.00117760
     atom    5 type  2   force =     0.00000013    0.00124300   -0.00042016
     atom    6 type  2   force =     0.00000000   -0.00125436    0.00041609
     atom    7 type  2   force =     0.00000000   -0.00125436   -0.00041609
     atom    8 type  2   force =     0.00000013    0.00124300    0.00042016
     atom    9 type  2   force =     0.00000000    0.00727193   -0.00021701
     atom   10 type  2   force =    -0.00000011   -0.00727219    0.00021896
     atom   11 type  2   force =    -0.00000011   -0.00727219   -0.00021896
     atom   12 type  2   force =    -0.00000008   -0.00146271    0.00000000
     atom   13 type  2   force =     0.00000000    0.00145359    0.00000000
     atom   14 type  2   force =     0.00000000    0.00727193    0.00021701
     atom   15 type  1   force =     0.00000000   -0.00811494    0.00118106
     atom   16 type  1   force =     0.00000008    0.00814699   -0.00117914
     atom   17 type  1   force =     0.00000008    0.00814699    0.00117914
     atom   18 type  1   force =     0.00000000   -0.00811494   -0.00118106
     atom   19 type  2   force =    -0.00000010    0.00125464   -0.00041668
     atom   20 type  2   force =     0.00000000   -0.00124296    0.00042021
     atom   21 type  2   force =     0.00000000   -0.00124296   -0.00042021
     atom   22 type  2   force =    -0.00000010    0.00125464    0.00041668
     atom   23 type  2   force =     0.00000000    0.00727395   -0.00021875
     atom   24 type  2   force =     0.00000001   -0.00727446    0.00021697
     atom   25 type  2   force =     0.00000001   -0.00727446   -0.00021697
     atom   26 type  2   force =    -0.00000001   -0.00145303    0.00000000
     atom   27 type  2   force =     0.00000000    0.00146342    0.00000000
     atom   28 type  2   force =     0.00000000    0.00727395    0.00021875
     atom   29 type  1   force =     0.00000000   -0.00814436    0.00117835
     atom   30 type  1   force =    -0.00000007    0.00811271   -0.00118264
     atom   31 type  1   force =    -0.00000007    0.00811271    0.00118264
     atom   32 type  1   force =     0.00000000   -0.00814436   -0.00117835
     atom   33 type  2   force =    -0.00000013    0.00124300   -0.00042016
     atom   34 type  2   force =     0.00000000   -0.00125451    0.00041584
     atom   35 type  2   force =     0.00000000   -0.00125451   -0.00041584
     atom   36 type  2   force =    -0.00000013    0.00124300    0.00042016
     atom   37 type  2   force =     0.00000000    0.00727242   -0.00021686
     atom   38 type  2   force =     0.00000011   -0.00727219    0.00021896
     atom   39 type  2   force =     0.00000011   -0.00727219   -0.00021896
     atom   40 type  2   force =     0.00000008   -0.00146271    0.00000000
     atom   41 type  2   force =     0.00000000    0.00145331    0.00000000
     atom   42 type  2   force =     0.00000000    0.00727242    0.00021686
     atom   43 type  1   force =     0.00000000   -0.00811561    0.00118154
     atom   44 type  1   force =    -0.00000008    0.00814699   -0.00117914
     atom   45 type  1   force =    -0.00000008    0.00814699    0.00117914
     atom   46 type  1   force =     0.00000000   -0.00811561   -0.00118154
     atom   47 type  2   force =     0.00000010    0.00125464   -0.00041668
     atom   48 type  2   force =     0.00000000   -0.00124295    0.00042023
     atom   49 type  2   force =     0.00000000   -0.00124295   -0.00042023
     atom   50 type  2   force =     0.00000010    0.00125464    0.00041668
     atom   51 type  2   force =     0.00000000    0.00727369   -0.00021871
     atom   52 type  2   force =    -0.00000001   -0.00727446    0.00021697
     atom   53 type  2   force =    -0.00000001   -0.00727446   -0.00021697
     atom   54 type  2   force =     0.00000001   -0.00145303    0.00000000
     atom   55 type  2   force =     0.00000000    0.00146338    0.00000000
     atom   56 type  2   force =     0.00000000    0.00727369    0.00021871

     Total force =     0.044404     Total SCF correction =     0.000032

     BFGS Geometry Optimization

     number of scf cycles    =   1
     number of bfgs steps    =   0

     energy   new            =   -5089.4778284479 Ry

     new trust radius        =       0.0082318756 bohr
     new conv_thr            =            1.0E-10 Ry


ATOMIC_POSITIONS (angstrom)
V        0.000000000   1.675682886   7.492168672
V        1.789048362   2.728626164   9.823646811
V        1.789048362   2.728626164   1.720261442
V        0.000000000   1.675682886   4.051739568
O        1.789048310   2.170757415   7.865618793
O        0.000000000   2.233721526   9.450052711
O        0.000000000   2.233721526   2.093855542
O        1.789048310   2.170757415   3.678289450
O        0.000000000   0.089957579   4.073939785
O        1.789048316   4.314363174   1.698050050
O        1.789048316   4.314363174   9.845858204
O        1.789048298   2.235760734   0.000000000
O        0.000000000   2.168763870   5.771954126
O        0.000000000   0.089957579   7.469968479
V        0.000000000   6.081228644   7.492214794
V        1.789048402   7.134172359   9.823692855
V        1.789048402   7.134172359   1.720215399
V        0.000000000   6.081228644   4.051693446
O        1.789048365   6.576133974   7.865809535
O        0.000000000   6.639097927   9.450243657
O        0.000000000   6.639097927   2.093664596
O        1.789048365   6.576133974   3.678098707
O        0.000000000   4.495492593   4.073904493
O        1.789048259   8.719896260   1.698014664
O        1.789048259   8.719896260   9.845893591
O        1.789048317   6.641091126   0.000000000
O        0.000000000   6.574095193   5.771954126
O        0.000000000   4.495492593   7.470003770
V        3.578096707   1.675683951   7.492169081
V        5.367145067   2.728626164   9.823646811
V        5.367145067   2.728626164   1.720261442
V        3.578096707   1.675683951   4.051739159
O        5.367145119   2.170757415   7.865618793
O        3.578096707   2.233721708   9.450052663
O        3.578096707   2.233721708   2.093855590
O        5.367145119   2.170757415   3.678289450
O        3.578096707   0.089958539   4.073939671
O        5.367145113   4.314363174   1.698050050
O        5.367145113   4.314363174   9.845858204
O        5.367145131   2.235760734   0.000000000
O        3.578096707   2.168764327   5.771954126
O        3.578096707   0.089958539   7.469968593
V        3.578096707   6.081228511   7.492214984
V        5.367145027   7.134172359   9.823692855
V        5.367145027   7.134172359   1.720215399
V        3.578096707   6.081228511   4.051693256
O        5.367145064   6.576133974   7.865809535
O        3.578096707   6.639098041   9.450243602
O        3.578096707   6.639098041   2.093664651
O        5.367145064   6.576133974   3.678098707
O        3.578096707   4.495492605   4.073904642
O        5.367145170   8.719896260   1.698014664
O        5.367145170   8.719896260   9.845893591
O        5.367145112   6.641091126   0.000000000
O        3.578096707   6.574095697   5.771954126
O        3.578096707   4.495492605   7.470003621



     Writing output data file ovac1.save/
     NEW-OLD atomic charge density approx. for the potential

     Check: negative core charge=   -0.000001

     negative rho (up, down):  1.436E-03 0.000E+00
 Atomic wfc used for LDA+U Projector are NOT orthogonalized

     total cpu time spent up to now is    13072.7 secs

     Self-consistent Calculation

     iteration #  1     ecut=    65.00 Ry     beta= 0.70
     Davidson diagonalization with overlap
     ethr =  1.00E-06,  avg # of iterations =  5.0
 --- enter write_ns ---
 LDA+U parameters:
U( 1)     =  4.00000000
alpha( 1) =  0.00000000
atom    1   Tr[ns(na)] =   4.58567
    eigenvalues: 
  0.301  0.473  0.476  0.494  0.548
    eigenvectors:
  0.000  0.000  0.173  0.518  0.309
  1.000  0.000  0.000  0.000  0.000
  0.000  0.000  0.728  0.270  0.001
  0.000  0.000  0.098  0.212  0.690
  0.000  1.000  0.000  0.000  0.000
    occupations:
  0.508 -0.000  0.006  0.027  0.000
 -0.000  0.301 -0.000  0.000 -0.001
  0.006 -0.000  0.481 -0.006  0.000
  0.027  0.000 -0.006  0.530 -0.000
  0.000 -0.001  0.000 -0.000  0.473
atom    2   Tr[ns(na)] =   4.58567
    eigenvalues: 
  0.301  0.473  0.476  0.494  0.548
    eigenvectors:
  0.000  0.000  0.173  0.518  0.309
  1.000  0.000  0.000  0.000  0.000
  0.000  0.000  0.728  0.271  0.001
  0.000  0.000  0.098  0.211  0.690
  0.000  1.000  0.000  0.000  0.000
    occupations:
  0.508  0.000  0.006  0.027 -0.000
  0.000  0.301  0.000  0.000 -0.001
  0.006  0.000  0.481 -0.006 -0.000
  0.027  0.000 -0.006  0.530 -0.000
 -0.000 -0.001 -0.000 -0.000  0.473
atom    3   Tr[ns(na)] =   4.58567
    eigenvalues: 
  0.301  0.473  0.476  0.494  0.548
    eigenvectors:
  0.000  0.000  0.173  0.518  0.309
[...]
     2.4463   2.4463   2.5640   2.5640   2.6599   2.6599   2.6788   2.6788
     2.7341   2.7341   2.9605   2.9605   2.9822   2.9822   3.1110   3.1110
     3.1175   3.1175   3.3904   3.3904   3.4054   3.4054   3.4083   3.4083
     3.6971   3.6971   3.7278   3.7278   3.7735   3.7735   3.7777   3.7777
     3.8696   3.8696   3.9053   3.9053   3.9405   3.9405   3.9745   3.9745
     6.5735   6.5735   6.6432   6.6432   6.7681   6.7681   6.7715   6.7715
     7.2482   7.2482   7.2882   7.2882   7.3589   7.3589   7.3836   7.3836
     7.4977   7.4977   7.5440   7.5440   7.5496   7.5496   7.6128   7.6128
     7.7127   7.7127   7.7319   7.7319   7.7612   7.7612   7.7829   7.7829
     7.8526   7.8526   7.9165   7.9165   7.9658   7.9658   7.9703   7.9703
     8.0065   8.0066   8.0578   8.0578   8.1076

          k =-0.5000 0.0000-0.3100 ( 43392 PWs)   bands (ev):

   -60.0942 -60.0942 -60.0942 -60.0942 -60.0940 -60.0940 -60.0940 -60.0940
   -60.0861 -60.0861 -60.0861 -60.0861 -60.0860 -60.0860 -60.0860 -60.0860
   -34.0519 -34.0519 -34.0519 -34.0519 -34.0492 -34.0492 -34.0492 -34.0492
   -34.0417 -34.0417 -34.0417 -34.0417 -34.0372 -34.0372 -34.0372 -34.0372
   -34.0036 -34.0036 -34.0036 -34.0036 -34.0034 -34.0034 -34.0033 -34.0033
   -33.9672 -33.9672 -33.9672 -33.9672 -33.9669 -33.9669 -33.9669 -33.9669
   -33.9170 -33.9170 -33.9170 -33.9170 -33.9168 -33.9168 -33.9168 -33.9168
   -33.9036 -33.9036 -33.9036 -33.9036 -33.9036 -33.9036 -33.9036 -33.9036
   -13.0410 -13.0410 -13.0410 -13.0410 -12.9404 -12.9404 -12.9404 -12.9404
   -12.1542 -12.1542 -12.1542 -12.1542 -12.1045 -12.1045 -12.1045 -12.1045
   -12.0995 -12.0995 -12.0995 -12.0995 -12.0623 -12.0623 -12.0623 -12.0623
   -11.8683 -11.8683 -11.8683 -11.8683 -11.8358 -11.8358 -11.8358 -11.8358
   -11.7361 -11.7361 -11.7361 -11.7361 -11.6746 -11.6746 -11.6746 -11.6746
    -0.6256  -0.6256  -0.6256  -0.6256  -0.5848  -0.5848  -0.5848  -0.5848
    -0.1268  -0.1268  -0.1268  -0.1268   0.0100   0.0100   0.0100   0.0100
     0.0532   0.0532   0.0532   0.0532   0.3382   0.3382   0.3382   0.3382
     0.5010   0.5010   0.5010   0.5010   0.5652   0.5652   0.5652   0.5652
     0.7420   0.7420   0.7420   0.7420   0.8916   0.8916   0.8916   0.8916
     1.1455   1.1455   1.1455   1.1455   1.3719   1.3719   1.3719   1.3719
     1.4494   1.4494   1.4494   1.4494   1.8915   1.8915   1.8915   1.8915
     1.9789   1.9789   1.9789   1.9789   2.0499   2.0499   2.0499   2.0499
     2.0700   2.0701   2.0701   2.0701   2.1656   2.1656   2.1656   2.1656
     2.2216   2.2216   2.2216   2.2216   2.2920   2.2920   2.2920   2.2920
     2.5131   2.5131   2.5131   2.5131   2.5592   2.5593   2.5593   2.5593
     2.6519   2.6519   2.6520   2.6520   3.1936   3.1936   3.1936   3.1936
     3.2334   3.2334   3.2334   3.2334   3.4277   3.4277   3.4277   3.4277
     3.7100   3.7100   3.7100   3.7100   3.7226   3.7226   3.7226   3.7226
     3.9166   3.9166   3.9166   3.9166   3.9741   3.9741   3.9741   3.9741
     6.7048   6.7048   6.7048   6.7048   6.7136   6.7136   6.7136   6.7136
     7.2904   7.2904   7.2904   7.2904   7.4324   7.4324   7.4324   7.4324
     7.4820   7.4820   7.4820   7.4820   7.6013   7.6013   7.6013   7.6013
     7.6481   7.6481   7.6481   7.6481   7.8310   7.8310   7.8310   7.8310
     7.8835   7.8835   7.8835   7.8835   7.9146   7.9147   7.9147   7.9147
     8.0247   8.0247   8.0247   8.0247   8.0793

          k =-0.5000-0.4061 0.0000 ( 43484 PWs)   bands (ev):

   -60.0951 -60.0951 -60.0951 -60.0951 -60.0929 -60.0929 -60.0929 -60.0929
   -60.0869 -60.0869 -60.0868 -60.0868 -60.0854 -60.0854 -60.0854 -60.0854
   -34.0526 -34.0526 -34.0526 -34.0526 -34.0487 -34.0487 -34.0487 -34.0487
   -34.0419 -34.0419 -34.0419 -34.0419 -34.0359 -34.0359 -34.0359 -34.0359
   -34.0171 -34.0171 -34.0171 -34.0171 -33.9822 -33.9822 -33.9822 -33.9822
   -33.9764 -33.9764 -33.9764 -33.9764 -33.9634 -33.9634 -33.9634 -33.9634
   -33.9258 -33.9258 -33.9258 -33.9258 -33.9159 -33.9159 -33.9159 -33.9159
   -33.9070 -33.9070 -33.9070 -33.9070 -33.8957 -33.8957 -33.8957 -33.8957
   -13.0512 -13.0512 -13.0509 -13.0509 -12.9181 -12.9181 -12.9179 -12.9179
   -12.1894 -12.1894 -12.1890 -12.1890 -12.1118 -12.1118 -12.1118 -12.1118
   -12.1024 -12.1024 -12.1024 -12.1024 -12.0274 -12.0274 -12.0272 -12.0272
   -11.8486 -11.8485 -11.8476 -11.8476 -11.8408 -11.8407 -11.8399 -11.8399
   -11.7268 -11.7267 -11.7256 -11.7256 -11.7056 -11.7056 -11.7047 -11.7047
    -0.6047  -0.6047  -0.6047  -0.6047  -0.5984  -0.5984  -0.5983  -0.5983
    -0.0772  -0.0772  -0.0770  -0.0770   0.0814   0.0814   0.0816   0.0816
     0.1392   0.1392   0.1395   0.1395   0.4091   0.4091   0.4105   0.4105
     0.5898   0.5898   0.5905   0.5905   0.6833   0.6833   0.6839   0.6839
     0.6843   0.6843   0.6849   0.6849   0.9000   0.9000   0.9010   0.9010
     0.9644   0.9644   0.9656   0.9656   1.0586   1.0586   1.0592   1.0592
     1.4509   1.4509   1.4509   1.4509   1.7495   1.7495   1.7501   1.7501
     1.7757   1.7757   1.7763   1.7763   1.8081   1.8081   1.8088   1.8088
     2.1176   2.1176   2.1178   2.1178   2.1519   2.1519   2.1521   2.1521
     2.2031   2.2031   2.2033   2.2033   2.4638   2.4638   2.4641   2.4641
     2.6244   2.6244   2.6246   2.6246   2.7440   2.7440   2.7440   2.7440
     2.9305   2.9305   2.9309   2.9309   3.0498   3.0498   3.0502   3.0502
     3.4708   3.4708   3.4719   3.4719   3.4745   3.4745   3.4754   3.4754
     3.6066   3.6066   3.6070   3.6070   3.6845   3.6845   3.6857   3.6857
     3.7958   3.7958   3.7958   3.7958   3.8742   3.8742   3.8742   3.8742
     6.6156   6.6156   6.6157   6.6157   6.7710   6.7710   6.7711   6.7711
     7.3407   7.3407   7.3411   7.3411   7.3648   7.3648   7.3653   7.3653
     7.4453   7.4453   7.4457   7.4457   7.6851   7.6851   7.6859   7.6859
     7.6886   7.6886   7.6891   7.6891   7.7388   7.7389   7.7389   7.7389
     7.9338   7.9338   7.9344   7.9344   7.9882   7.9882   7.9888   7.9888
     8.0270   8.0270   8.0272   8.0272   8.1951

          k =-0.5000-0.4061-0.3100 ( 43472 PWs)   bands (ev):

   -60.0941 -60.0941 -60.0941 -60.0941 -60.0940 -60.0940 -60.0940 -60.0940
   -60.0861 -60.0861 -60.0861 -60.0861 -60.0860 -60.0860 -60.0860 -60.0860
   -34.0505 -34.0505 -34.0505 -34.0505 -34.0505 -34.0505 -34.0505 -34.0505
   -34.0396 -34.0396 -34.0396 -34.0396 -34.0395 -34.0395 -34.0395 -34.0395
   -34.0036 -34.0036 -34.0036 -34.0036 -34.0035 -34.0035 -34.0035 -34.0035
   -33.9671 -33.9671 -33.9671 -33.9671 -33.9670 -33.9670 -33.9670 -33.9670
   -33.9171 -33.9171 -33.9171 -33.9171 -33.9169 -33.9169 -33.9169 -33.9169
   -33.9036 -33.9036 -33.9036 -33.9036 -33.9036 -33.9036 -33.9036 -33.9036
   -12.9903 -12.9903 -12.9903 -12.9903 -12.9900 -12.9900 -12.9900 -12.9900
   -12.1121 -12.1121 -12.1121 -12.1121 -12.1118 -12.1118 -12.1118 -12.1118
   -12.0974 -12.0974 -12.0974 -12.0974 -12.0973 -12.0973 -12.0973 -12.0973
   -11.8496 -11.8496 -11.8496 -11.8496 -11.8486 -11.8486 -11.8486 -11.8486
   -11.7117 -11.7117 -11.7117 -11.7117 -11.7107 -11.7107 -11.7107 -11.7107
    -0.6046  -0.6046  -0.6046  -0.6046  -0.6046  -0.6046  -0.6046  -0.6046
    -0.0289  -0.0289  -0.0289  -0.0289  -0.0287  -0.0287  -0.0287  -0.0287
     0.3256   0.3256   0.3256   0.3256   0.3264   0.3264   0.3264   0.3264
     0.5627   0.5627   0.5627   0.5627   0.5636   0.5636   0.5636   0.5636
     0.8708   0.8708   0.8708   0.8708   0.8714   0.8714   0.8714   0.8714
     0.9745   0.9745   0.9745   0.9745   0.9756   0.9756   0.9756   0.9756
     1.4968   1.4968   1.4968   1.4968   1.4986   1.4986   1.4986   1.4986
     2.0003   2.0003   2.0003   2.0003   2.0006   2.0006   2.0006   2.0006
     2.1359   2.1359   2.1359   2.1359   2.1362   2.1362   2.1362   2.1363
     2.2890   2.2890   2.2890   2.2890   2.2891   2.2891   2.2891   2.2891
     2.5998   2.5998   2.5998   2.5998   2.6001   2.6001   2.6001   2.6001
     2.9986   2.9986   2.9986   2.9986   2.9992   2.9992   2.9992   2.9992
     3.4981   3.4981   3.4981   3.4981   3.4984   3.4984   3.4984   3.4984
     3.6413   3.6413   3.6413   3.6414   3.6423   3.6423   3.6423   3.6423
     3.8347   3.8347   3.8347   3.8347   3.8352   3.8352   3.8352   3.8352
     6.7129   6.7129   6.7129   6.7129   6.7132   6.7132   6.7132   6.7132
     7.3887   7.3887   7.3887   7.3887   7.3892   7.3892   7.3892   7.3892
     7.5195   7.5195   7.5195   7.5195   7.5201   7.5201   7.5201   7.5201
     7.7627   7.7627   7.7628   7.7628   7.7634   7.7634   7.7634   7.7634
     7.9099   7.9099   7.9099   7.9099   7.9106   7.9106   7.9107   7.9107
     8.0690   8.0690   8.0692   8.0694   8.0694

     the Fermi energy is     5.2639 ev

!    total energy              =   -5089.47860327 Ry
     Harris-Foulkes estimate   =   -5089.47860327 Ry
     estimated scf accuracy    <          8.8E-13 Ry

     total all-electron energy =    -36396.894272 Ry

     The total energy is the sum of the following terms:

     one-electron contribution =   -2320.09595175 Ry
     hartree contribution      =    1332.90916001 Ry
     xc contribution           =    -619.35937635 Ry
     ewald contribution        =   -1986.50743488 Ry
     Dispersion Correction     =      -0.52245583 Ry
     Hubbard energy            =       5.67501219 Ry
     one-center paw contrib.   =   -1501.56794075 Ry
     smearing contrib. (-TS)   =      -0.00961590 Ry

     convergence has been achieved in  10 iterations

     negative rho (up, down):  1.027E-03 0.000E+00

     Forces acting on atoms (cartesian axes, Ry/au):

     atom    1 type  1   force =     0.00000000   -0.00000746    0.00000007
     atom    2 type  1   force =     0.00000021   -0.00000651   -0.00000012
     atom    3 type  1   force =     0.00000021   -0.00000651    0.00000012
     atom    4 type  1   force =     0.00000000   -0.00000746   -0.00000007
     atom    5 type  2   force =    -0.00000007   -0.00000073    0.00000043
     atom    6 type  2   force =     0.00000000    0.00000107   -0.00000022
     atom    7 type  2   force =     0.00000000    0.00000107    0.00000022
     atom    8 type  2   force =    -0.00000007   -0.00000073   -0.00000043
     atom    9 type  2   force =     0.00000000    0.00000739   -0.00000087
     atom   10 type  2   force =    -0.00000002    0.00000571    0.00000081
     atom   11 type  2   force =    -0.00000002    0.00000571   -0.00000081
     atom   12 type  2   force =    -0.00000003   -0.00000087    0.00000000
     atom   13 type  2   force =     0.00000000    0.00000159    0.00000000
     atom   14 type  2   force =     0.00000000    0.00000739    0.00000087
     atom   15 type  1   force =     0.00000000   -0.00000530   -0.00000027
     atom   16 type  1   force =    -0.00000015   -0.00000442    0.00000026
     atom   17 type  1   force =    -0.00000015   -0.00000442   -0.00000026
     atom   18 type  1   force =     0.00000000   -0.00000530    0.00000027
     atom   19 type  2   force =     0.00000010   -0.00000028    0.00000045
     atom   20 type  2   force =     0.00000000    0.00000091   -0.00000024
     atom   21 type  2   force =     0.00000000    0.00000091    0.00000024
     atom   22 type  2   force =     0.00000010   -0.00000028   -0.00000045
     atom   23 type  2   force =     0.00000000    0.00000534   -0.00000110
     atom   24 type  2   force =     0.00000003    0.00000374    0.00000072
     atom   25 type  2   force =     0.00000003    0.00000374   -0.00000072
     atom   26 type  2   force =    -0.00000000   -0.00000114    0.00000000
     atom   27 type  2   force =     0.00000000    0.00000119    0.00000000
     atom   28 type  2   force =     0.00000000    0.00000534    0.00000110
     atom   29 type  1   force =     0.00000000    0.00000361   -0.00000006
     atom   30 type  1   force =    -0.00000021   -0.00000651   -0.00000012
     atom   31 type  1   force =    -0.00000021   -0.00000651    0.00000012
     atom   32 type  1   force =     0.00000000    0.00000361    0.00000006
     atom   33 type  2   force =     0.00000007   -0.00000073    0.00000043
     atom   34 type  2   force =     0.00000000    0.00000077   -0.00000030
     atom   35 type  2   force =     0.00000000    0.00000077    0.00000030
     atom   36 type  2   force =     0.00000007   -0.00000073   -0.00000043
     atom   37 type  2   force =     0.00000000   -0.00000254   -0.00000075
     atom   38 type  2   force =     0.00000002    0.00000571    0.00000081
     atom   39 type  2   force =     0.00000002    0.00000571   -0.00000081
     atom   40 type  2   force =     0.00000003   -0.00000087    0.00000000
     atom   41 type  2   force =     0.00000000    0.00000075    0.00000000
     atom   42 type  2   force =     0.00000000   -0.00000254    0.00000075
     atom   43 type  1   force =     0.00000000   -0.00001122   -0.00000006
     atom   44 type  1   force =     0.00000015   -0.00000442    0.00000026
     atom   45 type  1   force =     0.00000015   -0.00000442   -0.00000026
     atom   46 type  1   force =     0.00000000   -0.00001122    0.00000006
     atom   47 type  2   force =    -0.00000010   -0.00000028    0.00000045
     atom   48 type  2   force =     0.00000000    0.00000108   -0.00000030
     atom   49 type  2   force =     0.00000000    0.00000108    0.00000030
     atom   50 type  2   force =    -0.00000010   -0.00000028   -0.00000045
     atom   51 type  2   force =     0.00000000    0.00001062   -0.00000123
     atom   52 type  2   force =    -0.00000003    0.00000374    0.00000072
     atom   53 type  2   force =    -0.00000003    0.00000374   -0.00000072
     atom   54 type  2   force =     0.00000000   -0.00000114    0.00000000
     atom   55 type  2   force =     0.00000000    0.00000190    0.00000000
     atom   56 type  2   force =     0.00000000    0.00001062    0.00000123

     Total force =     0.000036     Total SCF correction =     0.000003
     Message from routine bfgs:
     history already reset at previous step: stopping

     bfgs converged in  26 scf cycles and  25 bfgs steps
     (criteria: energy <  1.0E-04 Ry, force <  1.0E-05 Ry/Bohr)

     End of BFGS Geometry Optimization

     Final energy   =   -5089.4786032672 Ry
Begin final coordinates

ATOMIC_POSITIONS (angstrom)
V        0.000000000   1.684297290   7.491569715
V        1.789048329   2.719586117   9.824208117
V        1.789048329   2.719586117   1.719700137
V        0.000000000   1.684297290   4.052338526
O        1.789048382   2.181611337   7.862910598
O        0.000000000   2.222475603   9.452630386
O        0.000000000   2.222475603   2.091277867
O        1.789048382   2.181611337   3.680997644
O        0.000000000   0.094692610   4.074939453
O        1.789048378   4.309172621   1.697107385
O        1.789048378   4.309172621   9.846800870
O        1.789048445   2.225288837   0.000000000
O        0.000000000   2.178921175   5.771954126
O        0.000000000   0.094692610   7.468968810
V        0.000000000   6.090272872   7.491654131
V        1.789048422   7.125561135   9.824292681
V        1.789048422   7.125561135   1.719615572
V        0.000000000   6.090272872   4.052254109
O        1.789048372   6.587379715   7.863231908
O        0.000000000   6.628243908   9.452951576
O        0.000000000   6.628243908   2.090956677
O        1.789048372   6.587379715   3.680676334
O        0.000000000   4.500680060   4.074847541
O        1.789048469   8.715159229   1.697013642
O        1.789048469   8.715159229   9.846894612
O        1.789048393   6.630933371   0.000000000
O        0.000000000   6.584567474   5.771954126
O        0.000000000   4.500680060   7.469060723
V        3.578096707   1.684294310   7.491569664
V        5.367145100   2.719586117   9.824208117
V        5.367145100   2.719586117   1.719700137
V        3.578096707   1.684294310   4.052338577
O        5.367145047   2.181611337   7.862910598
O        3.578096707   2.222475584   9.452630318
O        3.578096707   2.222475584   2.091277935
O        5.367145047   2.181611337   3.680997644
O        3.578096707   0.094695077   4.074939950
O        5.367145051   4.309172621   1.697107385
O        5.367145051   4.309172621   9.846800870
O        5.367144984   2.225288837   0.000000000
O        3.578096707   2.178921554   5.771954126
O        3.578096707   0.094695077   7.468968314
V        3.578096707   6.090274056   7.491654107
V        5.367145007   7.125561135   9.824292681
V        5.367145007   7.125561135   1.719615572
V        3.578096707   6.090274056   4.052254134
O        5.367145057   6.587379715   7.863231908
O        3.578096707   6.628243689   9.452951672
O        3.578096707   6.628243689   2.090956581
O        5.367145057   6.587379715   3.680676334
O        3.578096707   4.500678517   4.074847608
O        5.367144960   8.715159229   1.697013642
O        5.367144960   8.715159229   9.846894612
O        5.367145036   6.630933371   0.000000000
O        3.578096707   6.584566823   5.771954126
O        3.578096707   4.500678517   7.469060656
End final coordinates



     Writing output data file ovac1.save/

     init_run     :    160.28s CPU    161.69s WALL (       1 calls)
     electrons    : 170844.40s CPU 172381.72s WALL (      26 calls)
     update_pot   :     97.62s CPU     98.22s WALL (      25 calls)
     forces       :   5014.52s CPU   5049.20s WALL (      26 calls)

     Called by init_run:
     wfcinit      :    152.03s CPU    152.89s WALL (       1 calls)
     potinit      :      1.50s CPU      1.53s WALL (       1 calls)
     hinit0       :      2.11s CPU      2.18s WALL (       1 calls)

     Called by electrons:
     c_bands      : 153627.68s CPU 154744.02s WALL (     530 calls)
     sum_band     :  15380.43s CPU  15634.49s WALL (     530 calls)
     v_of_rho     :    112.27s CPU    123.61s WALL (     532 calls)
     newd         :   1379.96s CPU   1535.37s WALL (     532 calls)
     PAW_pot      :    393.84s CPU    394.92s WALL (     557 calls)
     mix_rho      :     27.78s CPU     29.36s WALL (     530 calls)

     Called by c_bands:
     init_us_2    :    196.64s CPU    197.59s WALL (    9312 calls)
     cegterg      : 153076.40s CPU 154182.94s WALL (    4240 calls)

     Called by sum_band:
     sum_band:bec :     39.52s CPU     39.75s WALL (    4440 calls)
     addusdens    :   1443.27s CPU   1612.56s WALL (     530 calls)

     Called by *egterg:
     h_psi        :  65974.82s CPU  66422.09s WALL (   18166 calls)
     s_psi        :  27238.80s CPU  27333.87s WALL (   18582 calls)
     g_psi        :     30.20s CPU     30.52s WALL (   13918 calls)
     cdiaghg      :  11938.85s CPU  12130.47s WALL (   17766 calls)

     Called by h_psi:
     h_psi:pot    :  61450.42s CPU  61799.02s WALL (   18166 calls)
     h_psi:calbec :  28029.02s CPU  28178.07s WALL (   18166 calls)
     vloc_psi     :   7396.68s CPU   7494.85s WALL (   18166 calls)
     add_vuspsi   :  26024.17s CPU  26125.89s WALL (   18166 calls)
     vhpsi        :   4468.54s CPU   4489.92s WALL (   18166 calls)

     General routines
     calbec       :  48190.52s CPU  48446.77s WALL (  151300 calls)
     fft          :    133.36s CPU    144.91s WALL (    7199 calls)
     ffts         :      6.78s CPU      7.32s WALL (    1062 calls)
     fftw         :   8176.55s CPU   8281.08s WALL ( 6697378 calls)
     interpolate  :     12.16s CPU     13.29s WALL (     532 calls)
     davcio       :      0.00s CPU      0.02s WALL (       8 calls)

     Parallel routines
     fft_scatt_xy :    686.88s CPU    696.32s WALL ( 6705639 calls)
     fft_scatt_yz :   5283.51s CPU   5361.55s WALL ( 6705639 calls)

     Hubbard U routines
     new_ns       :    613.11s CPU    617.61s WALL (     530 calls)
     vhpsi        :   4468.54s CPU   4489.92s WALL (   18166 calls)
     force_hub    :   2427.34s CPU   2438.45s WALL (      26 calls)

     PWSCF        :   2d 1h27m CPU   2d 1h54m WALL


   This run was terminated on:   0:40:55   2Jun2024            

=------------------------------------------------------------------------------=
   JOB DONE.
=------------------------------------------------------------------------------=
