
     Program PWSCF v.6.4.1 starts on 18May2024 at 22: 9:14 

     This program is part of the open-source Quantum ESPRESSO suite
     for quantum simulation of materials; please cite
         "P. Giannozzi et al., J. Phys.:Condens. Matter 21 395502 (2009);
         "P. Giannozzi et al., J. Phys.:Condens. Matter 29 465901 (2017);
          URL http://www.quantum-espresso.org", 
     in publications or presentations arising from this work. More details at
     http://www.quantum-espresso.org/quote

     Parallel version (MPI), running on    32 processors

     MPI processes distributed on     1 nodes
     R & G space division:  proc/nbgrp/npool/nimage =      32
     Reading input from v2o5.vc.in
Warning: card O       -0.000000000   0.048914545   0.643203052 ignored

     Current dimensions of program PWSCF are:
     Max number of different atomic species (ntypx) = 10
     Max number of k-points (npk) =  40000
     Max angular momentum in pseudopotentials (lmaxx) =  3

     IMPORTANT: XC functional enforced from input :
     Exchange-correlation      = VDW-DF ( 1  4  4  0 1 0)
     Any further DFT definition will be discarded
     Please, verify this is what you really want


     Subspace diagonalization in iterative solution of the eigenvalue problem:
     one sub-group per band group will be used
     ELPA distributed-memory algorithm (size of sub-group:  4*  4 procs)


     Parallelization info
     --------------------
     sticks:   dense  smooth     PW     G-vecs:    dense   smooth      PW
     Min          41      41     11                 3259     3259     465
     Max          42      42     12                 3270     3270     474
     Sum        1331    1331    371               104395   104395   15023



     bravais-lattice index     =            8
     lattice parameter (alat)  =       6.7676  a.u.
     unit-cell volume          =    1320.1235 (a.u.)^3
     number of atoms/cell      =           14
     number of atomic types    =            2
     number of electrons       =       112.00
     number of Kohn-Sham states=           56
     kinetic-energy cutoff     =      70.0000  Ry
     charge density cutoff     =     280.0000  Ry
     convergence threshold     =      1.0E-10
     mixing beta               =       0.7000
     number of iterations used =            8  plain     mixing
     Exchange-correlation      = VDW-DF ( 1  4  4  0 1 0)
     nstep                     =          500


     celldm(1)=   6.767583  celldm(2)=   1.308375  celldm(3)=   3.255230
     celldm(4)=   0.000000  celldm(5)=   0.000000  celldm(6)=   0.000000

     crystal axes: (cart. coord. in units of alat)
               a(1) = (   1.000000   0.000000   0.000000 )  
               a(2) = (   0.000000   1.308375   0.000000 )  
               a(3) = (   0.000000   0.000000   3.255230 )  

     reciprocal axes: (cart. coord. in units 2 pi/alat)
               b(1) = (  1.000000  0.000000  0.000000 )  
               b(2) = (  0.000000  0.764307  0.000000 )  
               b(3) = (  0.000000  0.000000  0.307198 )  


     PseudoPot. # 1 for V  read from file:
     /home/mpicuntureo/pseudos/v.nc.upf
     MD5 check sum: 40fb93c06b4f9d8c28c5ccd071294a04
     Pseudo is Norm-conserving + core correction, Zval = 13.0
     Generated using ONCVPSP code by D. R. Hamann
     Using radial grid of 1536 points,  6 beta functions with: 
                l(1) =   0
                l(2) =   0
                l(3) =   1
                l(4) =   1
                l(5) =   2
                l(6) =   2

     PseudoPot. # 2 for O  read from file:
     /home/mpicuntureo/pseudos/o.nc.upf
     MD5 check sum: 3e3f909f7470e8921608ab6b1f57bbae
     Pseudo is Norm-conserving + core correction, Zval =  6.0
     Generated using ONCVPSP code by D. R. Hamann
     Using radial grid of  936 points,  5 beta functions with: 
                l(1) =   0
                l(2) =   0
                l(3) =   1
                l(4) =   1
                l(5) =   2

     vdW kernel table read from file vdW_kernel_table
     MD5 check sum: 8c4337f4b28e1601c069d7ef7b6561bc

     atomic species   valence    mass     pseudopotential
        V             13.00    50.94150     V ( 1.00)
        O              6.00    15.99940     O ( 1.00)

      8 Sym. Ops., with inversion, found ( 4 have fractional translation)



   Cartesian axes

     site n.     atom                  positions (alat units)
         1           V   tau(   1) = (   0.0000000   0.5083212   2.1085108  )
         2           V   tau(   2) = (   0.5000000   0.8000533   2.7743339  )
         3           V   tau(   3) = (   0.5000000   0.8000533   0.4808959  )
         4           V   tau(   4) = (   0.0000000   0.5083212   1.1467190  )
         5           O   tau(   5) = (   0.5000000   0.6458297   2.2175314  )
         6           O   tau(   6) = (   0.0000000   0.6625449   2.6653133  )
         7           O   tau(   7) = (   0.0000000   0.6625449   0.5899165  )
         8           O   tau(   8) = (   0.5000000   0.6458297   1.0376984  )
         9           O   tau(   9) = (   0.0000000   0.0639985   1.1614561  )
        10           O   tau(  10) = (   0.5000000   1.2443760   0.4661588  )
        11           O   tau(  11) = (   0.5000000   1.2443760   2.7890710  )
        12           O   tau(  12) = (   0.5000000   0.6549630   0.0000000  )
        13           O   tau(  13) = (   0.0000000   0.6534115   1.6276149  )
        14           O   tau(  14) = (   0.0000000   0.0639985   2.0937737  )

     number of k points=     4
                       cart. coord. in units 2pi/alat
        k(    1) = (   0.0000000   0.0000000   0.0000000), wk =   0.2222222
        k(    2) = (   0.0000000   0.2547691   0.0000000), wk =   0.4444444
        k(    3) = (   0.3333333   0.0000000   0.0000000), wk =   0.4444444
        k(    4) = (   0.3333333   0.2547691   0.0000000), wk =   0.8888889

     Dense  grid:   104395 G-vectors     FFT dimensions: (  40,  48, 120)

     Estimated max dynamical RAM per process >      13.87 MB

     Estimated total dynamical RAM >     444.00 MB

     Check: negative core charge=   -0.000007

     Initial potential from superposition of free atoms

     starting charge  111.99579, renormalised to  112.00000


     %%%%%%%%%%%%%%%%%%%%%%%%%%%%%%%%%%%%%%%%%%%%%%%%%%%%%%%%%%%%%%%%%%%%%%%%
     %                                                                      %
     % You are using vdW-DF, which was implemented by the Thonhauser group. %
     % Please cite the following two papers that made this development      %
     % possible and the two reviews that describe the various versions:     %
     %                                                                      %
     %   T. Thonhauser et al., PRL 115, 136402 (2015).                      %
     %   T. Thonhauser et al., PRB 76, 125112 (2007).                       %
     %   K. Berland et al., Rep. Prog. Phys. 78, 066501 (2015).             %
     %   D.C. Langreth et al., J. Phys.: Condens. Matter 21, 084203 (2009). %
     %                                                                      %
     %                                                                      %
     % If you are calculating the stress with vdW-DF, please also cite:     %
     %                                                                      %
     %   R. Sabatini et al., J. Phys.: Condens. Matter 24, 424209 (2012).   %
     %                                                                      %
     %%%%%%%%%%%%%%%%%%%%%%%%%%%%%%%%%%%%%%%%%%%%%%%%%%%%%%%%%%%%%%%%%%%%%%%%


     Starting wfcs are   80 randomized atomic wfcs

     total cpu time spent up to now is        1.1 secs

     Self-consistent Calculation

     iteration #  1     ecut=    70.00 Ry     beta= 0.70
     Davidson diagonalization with overlap
     ethr =  1.00E-02,  avg # of iterations =  2.0

     total cpu time spent up to now is        1.5 secs

     total energy              =    -920.61399822 Ry
     Harris-Foulkes estimate   =    -927.66463133 Ry
     estimated scf accuracy    <       8.82308039 Ry

     iteration #  2     ecut=    70.00 Ry     beta= 0.70
     Davidson diagonalization with overlap
     ethr =  7.88E-03,  avg # of iterations =  6.2

     total cpu time spent up to now is        2.5 secs

     total energy              =    -911.01860658 Ry
     Harris-Foulkes estimate   =    -945.42833166 Ry
     estimated scf accuracy    <     153.48994170 Ry

     iteration #  3     ecut=    70.00 Ry     beta= 0.70
     Davidson diagonalization with overlap
     ethr =  7.88E-03,  avg # of iterations =  5.5

     total cpu time spent up to now is        3.5 secs

     total energy              =    -925.68512166 Ry
     Harris-Foulkes estimate   =    -926.64021324 Ry
     estimated scf accuracy    <       3.01245132 Ry

     iteration #  4     ecut=    70.00 Ry     beta= 0.70
     Davidson diagonalization with overlap
     ethr =  2.69E-03,  avg # of iterations =  4.0

     total cpu time spent up to now is        4.0 secs

     total energy              =    -925.94197658 Ry
     Harris-Foulkes estimate   =    -926.09141703 Ry
     estimated scf accuracy    <       0.88304937 Ry

     iteration #  5     ecut=    70.00 Ry     beta= 0.70
     Davidson diagonalization with overlap
     ethr =  7.88E-04,  avg # of iterations =  3.2

     total cpu time spent up to now is        4.5 secs

     total energy              =    -925.85947306 Ry
     Harris-Foulkes estimate   =    -926.00341795 Ry
     estimated scf accuracy    <       0.48257136 Ry

     iteration #  6     ecut=    70.00 Ry     beta= 0.70
     Davidson diagonalization with overlap
     ethr =  4.31E-04,  avg # of iterations =  4.2

     total cpu time spent up to now is        5.1 secs

     total energy              =    -926.01358814 Ry
     Harris-Foulkes estimate   =    -926.03241984 Ry
     estimated scf accuracy    <       0.27536437 Ry

     iteration #  7     ecut=    70.00 Ry     beta= 0.70
     Davidson diagonalization with overlap
     ethr =  2.46E-04,  avg # of iterations =  1.0

     total cpu time spent up to now is        5.5 secs

     total energy              =    -925.97412160 Ry
     Harris-Foulkes estimate   =    -926.01590853 Ry
     estimated scf accuracy    <       0.22459542 Ry

     iteration #  8     ecut=    70.00 Ry     beta= 0.70
     Davidson diagonalization with overlap
     ethr =  2.01E-04,  avg # of iterations =  3.5

     total cpu time spent up to now is        5.9 secs

     total energy              =    -925.98569178 Ry
     Harris-Foulkes estimate   =    -925.99309021 Ry
     estimated scf accuracy    <       0.03390323 Ry

     iteration #  9     ecut=    70.00 Ry     beta= 0.70
     Davidson diagonalization with overlap
     ethr =  3.03E-05,  avg # of iterations =  4.5

     total cpu time spent up to now is        6.6 secs

     total energy              =    -925.99847868 Ry
     Harris-Foulkes estimate   =    -926.00090440 Ry
     estimated scf accuracy    <       0.01352769 Ry

     iteration # 10     ecut=    70.00 Ry     beta= 0.70
     Davidson diagonalization with overlap
     ethr =  1.21E-05,  avg # of iterations =  2.5

     total cpu time spent up to now is        7.0 secs

     total energy              =    -925.99756680 Ry
     Harris-Foulkes estimate   =    -925.99888675 Ry
     estimated scf accuracy    <       0.00651633 Ry

     iteration # 11     ecut=    70.00 Ry     beta= 0.70
     Davidson diagonalization with overlap
     ethr =  5.82E-06,  avg # of iterations =  4.2

     total cpu time spent up to now is        7.7 secs

     total energy              =    -925.99913548 Ry
     Harris-Foulkes estimate   =    -925.99949523 Ry
     estimated scf accuracy    <       0.00201383 Ry

     iteration # 12     ecut=    70.00 Ry     beta= 0.70
     Davidson diagonalization with overlap
     ethr =  1.80E-06,  avg # of iterations =  2.5

     total cpu time spent up to now is        8.1 secs

     total energy              =    -925.99908103 Ry
     Harris-Foulkes estimate   =    -925.99920709 Ry
     estimated scf accuracy    <       0.00094282 Ry

     iteration # 13     ecut=    70.00 Ry     beta= 0.70
     Davidson diagonalization with overlap
     ethr =  8.42E-07,  avg # of iterations =  4.0

     total cpu time spent up to now is        8.7 secs

     total energy              =    -925.99926534 Ry
     Harris-Foulkes estimate   =    -925.99929499 Ry
     estimated scf accuracy    <       0.00016885 Ry

     iteration # 14     ecut=    70.00 Ry     beta= 0.70
     Davidson diagonalization with overlap
     ethr =  1.51E-07,  avg # of iterations =  3.8

     total cpu time spent up to now is        9.1 secs

     total energy              =    -925.99924752 Ry
     Harris-Foulkes estimate   =    -925.99927703 Ry
     estimated scf accuracy    <       0.00009957 Ry

     iteration # 15     ecut=    70.00 Ry     beta= 0.70
     Davidson diagonalization with overlap
     ethr =  8.89E-08,  avg # of iterations =  4.0

     total cpu time spent up to now is        9.8 secs

     total energy              =    -925.99927404 Ry
     Harris-Foulkes estimate   =    -925.99927943 Ry
     estimated scf accuracy    <       0.00003824 Ry

     iteration # 16     ecut=    70.00 Ry     beta= 0.70
     Davidson diagonalization with overlap
     ethr =  3.41E-08,  avg # of iterations =  1.0

     total cpu time spent up to now is       10.1 secs

     total energy              =    -925.99926731 Ry
     Harris-Foulkes estimate   =    -925.99927474 Ry
     estimated scf accuracy    <       0.00002416 Ry

     iteration # 17     ecut=    70.00 Ry     beta= 0.70
     Davidson diagonalization with overlap
     ethr =  2.16E-08,  avg # of iterations =  4.2

     total cpu time spent up to now is       10.8 secs

     total energy              =    -925.99927335 Ry
     Harris-Foulkes estimate   =    -925.99927719 Ry
     estimated scf accuracy    <       0.00001793 Ry

     iteration # 18     ecut=    70.00 Ry     beta= 0.70
     Davidson diagonalization with overlap
     ethr =  1.60E-08,  avg # of iterations =  2.0

     total cpu time spent up to now is       11.2 secs

     total energy              =    -925.99927352 Ry
     Harris-Foulkes estimate   =    -925.99927400 Ry
     estimated scf accuracy    <       0.00000646 Ry

     iteration # 19     ecut=    70.00 Ry     beta= 0.70
     Davidson diagonalization with overlap
     ethr =  5.76E-09,  avg # of iterations =  4.0

     total cpu time spent up to now is       11.7 secs

     total energy              =    -925.99927444 Ry
     Harris-Foulkes estimate   =    -925.99927447 Ry
     estimated scf accuracy    <       0.00000050 Ry

     iteration # 20     ecut=    70.00 Ry     beta= 0.70
     Davidson diagonalization with overlap
     ethr =  4.48E-10,  avg # of iterations =  5.0

     total cpu time spent up to now is       12.4 secs

     total energy              =    -925.99927478 Ry
     Harris-Foulkes estimate   =    -925.99927479 Ry
     estimated scf accuracy    <       0.00000006 Ry

     iteration # 21     ecut=    70.00 Ry     beta= 0.70
     Davidson diagonalization with overlap
     ethr =  5.44E-11,  avg # of iterations =  3.8

     total cpu time spent up to now is       12.8 secs

     total energy              =    -925.99927478 Ry
     Harris-Foulkes estimate   =    -925.99927478 Ry
     estimated scf accuracy    <       0.00000003 Ry

     iteration # 22     ecut=    70.00 Ry     beta= 0.70
     Davidson diagonalization with overlap
     ethr =  2.43E-11,  avg # of iterations =  4.0

     total cpu time spent up to now is       13.5 secs

     total energy              =    -925.99927478 Ry
     Harris-Foulkes estimate   =    -925.99927478 Ry
     estimated scf accuracy    <          5.4E-09 Ry

     iteration # 23     ecut=    70.00 Ry     beta= 0.70
     Davidson diagonalization with overlap
     ethr =  4.80E-12,  avg # of iterations =  1.8

     total cpu time spent up to now is       13.9 secs

     total energy              =    -925.99927478 Ry
     Harris-Foulkes estimate   =    -925.99927478 Ry
     estimated scf accuracy    <          2.8E-09 Ry

     iteration # 24     ecut=    70.00 Ry     beta= 0.70
     Davidson diagonalization with overlap
     ethr =  2.52E-12,  avg # of iterations =  4.0

     total cpu time spent up to now is       14.3 secs

     total energy              =    -925.99927478 Ry
     Harris-Foulkes estimate   =    -925.99927478 Ry
     estimated scf accuracy    <          1.7E-09 Ry

     iteration # 25     ecut=    70.00 Ry     beta= 0.70
     Davidson diagonalization with overlap
     ethr =  1.50E-12,  avg # of iterations =  4.0

     total cpu time spent up to now is       14.8 secs

     total energy              =    -925.99927478 Ry
     Harris-Foulkes estimate   =    -925.99927478 Ry
     estimated scf accuracy    <          3.3E-10 Ry

     iteration # 26     ecut=    70.00 Ry     beta= 0.70
     Davidson diagonalization with overlap
     ethr =  2.93E-13,  avg # of iterations =  4.5

     total cpu time spent up to now is       15.5 secs

     total energy              =    -925.99927478 Ry
     Harris-Foulkes estimate   =    -925.99927478 Ry
     estimated scf accuracy    <          1.5E-10 Ry

     iteration # 27     ecut=    70.00 Ry     beta= 0.70
     Davidson diagonalization with overlap
     ethr =  1.34E-13,  avg # of iterations =  1.0

     total cpu time spent up to now is       15.9 secs

     total energy              =    -925.99927478 Ry
     Harris-Foulkes estimate   =    -925.99927478 Ry
     estimated scf accuracy    <          1.6E-10 Ry

     iteration # 28     ecut=    70.00 Ry     beta= 0.70
     Davidson diagonalization with overlap
     ethr =  1.34E-13,  avg # of iterations =  4.5

     total cpu time spent up to now is       16.6 secs

     total energy              =    -925.99927478 Ry
     Harris-Foulkes estimate   =    -925.99927478 Ry
     estimated scf accuracy    <          6.2E-10 Ry

     iteration # 29     ecut=    70.00 Ry     beta= 0.70
     Davidson diagonalization with overlap
     ethr =  1.34E-13,  avg # of iterations =  4.5

     total cpu time spent up to now is       17.8 secs

     End of self-consistent calculation

          k = 0.0000 0.0000 0.0000 ( 13071 PWs)   bands (ev):

   -61.0288 -61.0272 -61.0200 -61.0181 -35.0070 -35.0048 -34.9974 -34.9928
   -34.9251 -34.8781 -34.8601 -34.8303 -34.8281 -34.8149 -34.8012 -34.7991
   -14.2395 -14.1259 -13.2535 -13.1103 -13.0413 -13.0345 -12.6853 -12.6798
   -12.5493 -12.5433  -1.0900  -1.0791  -1.0093  -0.9026  -0.8027  -0.4002
     0.2540   0.3444   0.5276   0.6089   0.7453   0.7880   0.8988   0.9429
     1.0043   1.0338   1.2995   1.3350   1.4343   1.4865   1.5929   1.6076
     1.8021   2.0379   2.1719   2.1996   2.3133   2.4928   2.4945   2.5854

          k = 0.0000 0.2548 0.0000 ( 13040 PWs)   bands (ev):

   -61.0287 -61.0269 -61.0199 -61.0181 -35.0077 -35.0054 -34.9989 -34.9943
   -34.9249 -34.8779 -34.8600 -34.8302 -34.8281 -34.8150 -34.8012 -34.7991
   -14.1925 -14.0869 -13.2097 -13.0930 -13.0401 -13.0193 -12.7010 -12.6764
   -12.5523 -12.5232  -1.1189  -1.1078  -1.0333  -0.9342  -0.9053  -0.5581
    -0.4198  -0.1847  -0.1432  -0.0092   0.4387   0.5646   0.6216   0.9861
     1.0911   1.3014   1.4566   1.4735   1.6117   1.6820   1.8081   1.9026
     2.1646   2.1727   2.1814   2.3506   2.4007   2.5959   2.6708   2.7521

          k = 0.3333 0.0000 0.0000 ( 13080 PWs)   bands (ev):

   -61.0253 -61.0234 -61.0207 -61.0190 -35.0015 -34.9995 -34.9958 -34.9923
   -34.9218 -34.8987 -34.8854 -34.8771 -34.8397 -34.8337 -34.8207 -34.8130
   -13.7142 -13.5866 -13.1633 -13.0055 -13.0010 -12.9929 -12.6279 -12.6278
   -12.5919 -12.5675  -1.5537  -1.4824  -0.8074  -0.7505  -0.7120  -0.3394
    -0.2467   0.1109   0.1303   0.4156   0.4283   0.4771   0.7996   0.9159
     0.9612   0.9945   1.0123   1.0991   1.2541   1.2633   1.4472   1.4898
     1.5478   1.9345   2.2313   2.3029   2.4259   2.5802   2.7694   2.7933

          k = 0.3333 0.2548 0.0000 ( 13061 PWs)   bands (ev):

   -61.0252 -61.0234 -61.0206 -61.0189 -35.0024 -35.0003 -34.9970 -34.9935
   -34.9217 -34.8986 -34.8852 -34.8770 -34.8397 -34.8337 -34.8207 -34.8131
   -13.6730 -13.5575 -13.1321 -13.0035 -12.9922 -12.9798 -12.6372 -12.6175
   -12.5628 -12.5404  -1.5519  -1.4797  -0.8449  -0.8052  -0.7830  -0.4440
    -0.3920  -0.2778  -0.1767  -0.0085   0.0591   0.2035   0.5520   0.5963
     0.6597   0.7418   0.8307   0.9286   1.0036   1.4478   1.6859   1.8546
     2.0713   2.1389   2.4509   2.6731   2.6821   2.8174   2.9021   2.9188

     highest occupied level (ev):     2.9188

!    total energy              =    -925.99927478 Ry
     Harris-Foulkes estimate   =    -925.99927478 Ry
     estimated scf accuracy    <          4.9E-11 Ry

     The total energy is the sum of the following terms:

     one-electron contribution =    -627.14048285 Ry
     hartree contribution      =     350.34634154 Ry
     xc contribution           =    -178.12842287 Ry
     ewald contribution        =    -471.07671061 Ry

     convergence has been achieved in  29 iterations

     Forces acting on atoms (cartesian axes, Ry/au):

     atom    1 type  1   force =    -0.00000000    0.00030317   -0.00039582
     atom    2 type  1   force =     0.00000000   -0.00030317    0.00039582
     atom    3 type  1   force =     0.00000000   -0.00030317   -0.00039582
     atom    4 type  1   force =     0.00000000    0.00030317    0.00039582
     atom    5 type  2   force =    -0.00000000    0.00006509    0.00000765
     atom    6 type  2   force =     0.00000000   -0.00006509   -0.00000765
     atom    7 type  2   force =     0.00000000   -0.00006509    0.00000765
     atom    8 type  2   force =    -0.00000000    0.00006509   -0.00000765
     atom    9 type  2   force =     0.00000000   -0.00014469    0.00019121
     atom   10 type  2   force =     0.00000000    0.00014469   -0.00019121
     atom   11 type  2   force =     0.00000000    0.00014469    0.00019121
     atom   12 type  2   force =     0.00000000   -0.00008524    0.00000000
     atom   13 type  2   force =     0.00000000    0.00008524    0.00000000
     atom   14 type  2   force =     0.00000000   -0.00014469   -0.00019121

     Total force =     0.001121     Total SCF correction =     0.000022


     Computing stress (Cartesian axis) and pressure

          total   stress  (Ry/bohr**3)                   (kbar)     P=  -19.17
  -0.00013257   0.00000000   0.00000000        -19.50      0.00      0.00
   0.00000000  -0.00013315   0.00000000          0.00    -19.59      0.00
   0.00000000   0.00000000  -0.00012525          0.00      0.00    -18.43


     BFGS Geometry Optimization

     number of scf cycles    =   1
     number of bfgs steps    =   0

     enthalpy new            =    -925.9992747839 Ry

     new trust radius        =       0.0241899091 bohr
     new conv_thr            =            1.0E-10 Ry

     new unit-cell volume =   1307.26204 a.u.^3 (   193.71625 Ang^3 )
     density =      3.11816 g/cm^3

CELL_PARAMETERS (alat=  6.76758343)
   0.996685749   0.000000000   0.000000000
   0.000000000   1.304019097   0.000000000
   0.000000000   0.000000000   3.245036574

ATOMIC_POSITIONS (crystal)
V       -0.000000000   0.388547790   0.647712274
V        0.500000007   0.611452223   0.852287747
V        0.500000007   0.611452223   0.147712267
V        0.000000000   0.388547790   0.352287740
O        0.500000007   0.493619590   0.681221508
O        0.000000000   0.506380424   0.818778514
O        0.000000000   0.506380424   0.181221500
O        0.500000007   0.493619590   0.318778507
O        0.000000000   0.048898204   0.356805642
O        0.500000007   0.951101810   0.143194365
O        0.500000007   0.951101810   0.856805649
O        0.500000007   0.500583313   0.000000000
O        0.000000000   0.499416700   0.500000007
O        0.000000000   0.048898204   0.643194372



     Writing output data file v2o5.save/
     NEW-OLD atomic charge density approx. for the potential

     Check: negative core charge=   -0.000006
     extrapolated charge  110.89813, renormalised to  112.00000

     total cpu time spent up to now is       19.7 secs

     Self-consistent Calculation

     iteration #  1     ecut=    70.00 Ry     beta= 0.70
     Davidson diagonalization with overlap
     ethr =  1.00E-06,  avg # of iterations = 10.5

     total cpu time spent up to now is       22.1 secs

     total energy              =    -925.44697223 Ry
     Harris-Foulkes estimate   =    -931.09597777 Ry
     estimated scf accuracy    <       0.55746597 Ry

     iteration #  2     ecut=    70.00 Ry     beta= 0.70
     Davidson diagonalization with overlap
     ethr =  4.98E-04,  avg # of iterations =  4.2

     total cpu time spent up to now is       23.4 secs

     total energy              =    -925.59769274 Ry
     Harris-Foulkes estimate   =    -927.42592023 Ry
     estimated scf accuracy    <       6.99510873 Ry

     iteration #  3     ecut=    70.00 Ry     beta= 0.70
     Davidson diagonalization with overlap
     ethr =  4.98E-04,  avg # of iterations =  5.0

     total cpu time spent up to now is       24.7 secs

     total energy              =    -926.01033084 Ry
     Harris-Foulkes estimate   =    -926.08900110 Ry
     estimated scf accuracy    <       0.56809596 Ry

     iteration #  4     ecut=    70.00 Ry     beta= 0.70
     Davidson diagonalization with overlap
     ethr =  4.98E-04,  avg # of iterations =  1.0

     total cpu time spent up to now is       25.2 secs

     total energy              =    -925.98069101 Ry
     Harris-Foulkes estimate   =    -926.01661607 Ry
     estimated scf accuracy    <       0.39562393 Ry

     iteration #  5     ecut=    70.00 Ry     beta= 0.70
     Davidson diagonalization with overlap
     ethr =  3.53E-04,  avg # of iterations =  1.0

     total cpu time spent up to now is       25.8 secs

     total energy              =    -925.98685800 Ry
     Harris-Foulkes estimate   =    -925.98908036 Ry
     estimated scf accuracy    <       0.23408359 Ry

     iteration #  6     ecut=    70.00 Ry     beta= 0.70
     Davidson diagonalization with overlap
     ethr =  2.09E-04,  avg # of iterations =  1.8

     total cpu time spent up to now is       26.3 secs

     total energy              =    -925.97859331 Ry
     Harris-Foulkes estimate   =    -925.99348263 Ry
     estimated scf accuracy    <       0.20212443 Ry

     iteration #  7     ecut=    70.00 Ry     beta= 0.70
     Davidson diagonalization with overlap
     ethr =  1.80E-04,  avg # of iterations =  3.0

     total cpu time spent up to now is       26.9 secs

     total energy              =    -925.98878767 Ry
     Harris-Foulkes estimate   =    -925.98709580 Ry
     estimated scf accuracy    <       0.09181265 Ry

     iteration #  8     ecut=    70.00 Ry     beta= 0.70
     Davidson diagonalization with overlap
     ethr =  8.20E-05,  avg # of iterations =  4.0

     total cpu time spent up to now is       27.7 secs

     total energy              =    -926.00114638 Ry
     Harris-Foulkes estimate   =    -925.99861943 Ry
     estimated scf accuracy    <       0.02444642 Ry

     iteration #  9     ecut=    70.00 Ry     beta= 0.70
     Davidson diagonalization with overlap
     ethr =  2.18E-05,  avg # of iterations =  3.5

     total cpu time spent up to now is       28.3 secs

     total energy              =    -926.00221890 Ry
     Harris-Foulkes estimate   =    -926.00288932 Ry
     estimated scf accuracy    <       0.02031550 Ry

     iteration # 10     ecut=    70.00 Ry     beta= 0.70
     Davidson diagonalization with overlap
     ethr =  1.81E-05,  avg # of iterations =  1.0

     total cpu time spent up to now is       28.8 secs

     total energy              =    -925.99692882 Ry
     Harris-Foulkes estimate   =    -926.00244384 Ry
     estimated scf accuracy    <       0.01858988 Ry

     iteration # 11     ecut=    70.00 Ry     beta= 0.70
     Davidson diagonalization with overlap
     ethr =  1.66E-05,  avg # of iterations =  4.0

     total cpu time spent up to now is       29.6 secs

     total energy              =    -926.00032642 Ry
     Harris-Foulkes estimate   =    -925.99961088 Ry
     estimated scf accuracy    <       0.00135697 Ry

     iteration # 12     ecut=    70.00 Ry     beta= 0.70
     Davidson diagonalization with overlap
     ethr =  1.21E-06,  avg # of iterations =  5.0

     total cpu time spent up to now is       30.7 secs

     total energy              =    -926.00241800 Ry
     Harris-Foulkes estimate   =    -926.00078931 Ry
     estimated scf accuracy    <       0.00490987 Ry

     iteration # 13     ecut=    70.00 Ry     beta= 0.70
     Davidson diagonalization with overlap
     ethr =  1.21E-06,  avg # of iterations =  5.0

     total cpu time spent up to now is       31.9 secs

     total energy              =    -926.00556084 Ry
     Harris-Foulkes estimate   =    -926.00332131 Ry
     estimated scf accuracy    <       0.02635079 Ry

     iteration # 14     ecut=    70.00 Ry     beta= 0.70
     Davidson diagonalization with overlap
     ethr =  1.21E-06,  avg # of iterations =  4.0

     total cpu time spent up to now is       32.8 secs

     total energy              =    -926.00202177 Ry
     Harris-Foulkes estimate   =    -926.00595484 Ry
     estimated scf accuracy    <       0.04832126 Ry

     iteration # 15     ecut=    70.00 Ry     beta= 0.70
     Davidson diagonalization with overlap
     ethr =  1.21E-06,  avg # of iterations =  5.0

     total cpu time spent up to now is       33.9 secs

     total energy              =    -926.00114297 Ry
     Harris-Foulkes estimate   =    -926.00262083 Ry
     estimated scf accuracy    <       0.02095513 Ry

     iteration # 16     ecut=    70.00 Ry     beta= 0.70
     Davidson diagonalization with overlap
     ethr =  1.21E-06,  avg # of iterations =  4.0

     total cpu time spent up to now is       34.7 secs

     total energy              =    -925.99980398 Ry
     Harris-Foulkes estimate   =    -926.00137966 Ry
     estimated scf accuracy    <       0.01042237 Ry

     iteration # 17     ecut=    70.00 Ry     beta= 0.70
     Davidson diagonalization with overlap
     ethr =  1.21E-06,  avg # of iterations =  4.5

     total cpu time spent up to now is       35.8 secs

     total energy              =    -925.99996619 Ry
     Harris-Foulkes estimate   =    -926.00039049 Ry
     estimated scf accuracy    <       0.00112645 Ry

     iteration # 18     ecut=    70.00 Ry     beta= 0.70
     Davidson diagonalization with overlap
     ethr =  1.01E-06,  avg # of iterations =  4.2

     total cpu time spent up to now is       36.8 secs

     total energy              =    -926.00012874 Ry
     Harris-Foulkes estimate   =    -926.00032885 Ry
     estimated scf accuracy    <       0.00104465 Ry

     iteration # 19     ecut=    70.00 Ry     beta= 0.70
     Davidson diagonalization with overlap
     ethr =  9.33E-07,  avg # of iterations =  2.8

     total cpu time spent up to now is       37.4 secs

     total energy              =    -926.00009720 Ry
     Harris-Foulkes estimate   =    -926.00016420 Ry
     estimated scf accuracy    <       0.00039250 Ry

     iteration # 20     ecut=    70.00 Ry     beta= 0.70
     Davidson diagonalization with overlap
     ethr =  3.50E-07,  avg # of iterations =  4.0

     total cpu time spent up to now is       38.4 secs

     total energy              =    -926.00020811 Ry
     Harris-Foulkes estimate   =    -926.00022634 Ry
     estimated scf accuracy    <       0.00012687 Ry

     iteration # 21     ecut=    70.00 Ry     beta= 0.70
     Davidson diagonalization with overlap
     ethr =  1.13E-07,  avg # of iterations =  1.5

     total cpu time spent up to now is       38.9 secs

     total energy              =    -926.00019563 Ry
     Harris-Foulkes estimate   =    -926.00021025 Ry
     estimated scf accuracy    <       0.00007761 Ry

     iteration # 22     ecut=    70.00 Ry     beta= 0.70
     Davidson diagonalization with overlap
     ethr =  6.93E-08,  avg # of iterations =  4.0

     total cpu time spent up to now is       39.8 secs

     total energy              =    -926.00021054 Ry
     Harris-Foulkes estimate   =    -926.00021233 Ry
     estimated scf accuracy    <       0.00000916 Ry

     iteration # 23     ecut=    70.00 Ry     beta= 0.70
     Davidson diagonalization with overlap
     ethr =  8.17E-09,  avg # of iterations =  3.8

     total cpu time spent up to now is       40.5 secs

     total energy              =    -926.00021062 Ry
     Harris-Foulkes estimate   =    -926.00021126 Ry
     estimated scf accuracy    <       0.00000348 Ry

     iteration # 24     ecut=    70.00 Ry     beta= 0.70
     Davidson diagonalization with overlap
     ethr =  3.10E-09,  avg # of iterations =  4.0

     total cpu time spent up to now is       41.4 secs

     total energy              =    -926.00021160 Ry
     Harris-Foulkes estimate   =    -926.00021171 Ry
     estimated scf accuracy    <       0.00000084 Ry

     iteration # 25     ecut=    70.00 Ry     beta= 0.70
     Davidson diagonalization with overlap
     ethr =  7.47E-10,  avg # of iterations =  2.5

     total cpu time spent up to now is       42.0 secs

     total energy              =    -926.00021154 Ry
     Harris-Foulkes estimate   =    -926.00021162 Ry
     estimated scf accuracy    <       0.00000058 Ry

     iteration # 26     ecut=    70.00 Ry     beta= 0.70
     Davidson diagonalization with overlap
     ethr =  5.16E-10,  avg # of iterations =  3.0

     total cpu time spent up to now is       42.6 secs

     total energy              =    -926.00021160 Ry
     Harris-Foulkes estimate   =    -926.00021160 Ry
     estimated scf accuracy    <       0.00000005 Ry

     iteration # 27     ecut=    70.00 Ry     beta= 0.70
     Davidson diagonalization with overlap
     ethr =  4.62E-11,  avg # of iterations =  4.8

     total cpu time spent up to now is       43.5 secs

     total energy              =    -926.00021162 Ry
     Harris-Foulkes estimate   =    -926.00021162 Ry
     estimated scf accuracy    <          1.4E-09 Ry

     iteration # 28     ecut=    70.00 Ry     beta= 0.70
     Davidson diagonalization with overlap
     ethr =  1.21E-12,  avg # of iterations =  5.5

     total cpu time spent up to now is       44.5 secs

     total energy              =    -926.00021162 Ry
     Harris-Foulkes estimate   =    -926.00021162 Ry
     estimated scf accuracy    <          1.5E-09 Ry

     iteration # 29     ecut=    70.00 Ry     beta= 0.70
     Davidson diagonalization with overlap
     ethr =  1.21E-12,  avg # of iterations =  4.0

     total cpu time spent up to now is       45.2 secs

     total energy              =    -926.00021162 Ry
     Harris-Foulkes estimate   =    -926.00021162 Ry
     estimated scf accuracy    <          1.2E-09 Ry

     iteration # 30     ecut=    70.00 Ry     beta= 0.70
     Davidson diagonalization with overlap
     ethr =  1.08E-12,  avg # of iterations =  4.0

     total cpu time spent up to now is       46.0 secs

     total energy              =    -926.00021162 Ry
     Harris-Foulkes estimate   =    -926.00021162 Ry
     estimated scf accuracy    <          5.3E-10 Ry

     iteration # 31     ecut=    70.00 Ry     beta= 0.70
     Davidson diagonalization with overlap
     ethr =  4.73E-13,  avg # of iterations =  4.0

     total cpu time spent up to now is       47.0 secs

     total energy              =    -926.00021162 Ry
     Harris-Foulkes estimate   =    -926.00021162 Ry
     estimated scf accuracy    <          3.1E-09 Ry

     iteration # 32     ecut=    70.00 Ry     beta= 0.70
     Davidson diagonalization with overlap
     ethr =  4.73E-13,  avg # of iterations =  3.5

     total cpu time spent up to now is       47.7 secs

     total energy              =    -926.00021162 Ry
     Harris-Foulkes estimate   =    -926.00021162 Ry
     estimated scf accuracy    <          4.7E-09 Ry

     iteration # 33     ecut=    70.00 Ry     beta= 0.70
     Davidson diagonalization with overlap
     ethr =  4.73E-13,  avg # of iterations =  3.2

     total cpu time spent up to now is       48.4 secs

     total energy              =    -926.00021162 Ry
     Harris-Foulkes estimate   =    -926.00021162 Ry
     estimated scf accuracy    <          6.0E-09 Ry

     iteration # 34     ecut=    70.00 Ry     beta= 0.70
     Davidson diagonalization with overlap
     ethr =  4.73E-13,  avg # of iterations =  1.0

     total cpu time spent up to now is       48.9 secs

     total energy              =    -926.00021162 Ry
     Harris-Foulkes estimate   =    -926.00021162 Ry
     estimated scf accuracy    <          5.9E-09 Ry

     iteration # 35     ecut=    70.00 Ry     beta= 0.70
     Davidson diagonalization with overlap
     ethr =  4.73E-13,  avg # of iterations =  1.0

     total cpu time spent up to now is       49.4 secs

     total energy              =    -926.00021162 Ry
     Harris-Foulkes estimate   =    -926.00021162 Ry
     estimated scf accuracy    <          5.0E-09 Ry

     iteration # 36     ecut=    70.00 Ry     beta= 0.70
     Davidson diagonalization with overlap
     ethr =  4.73E-13,  avg # of iterations =  5.2

     total cpu time spent up to now is       50.8 secs

     total energy              =    -926.00021162 Ry
     Harris-Foulkes estimate   =    -926.00021162 Ry
     estimated scf accuracy    <          9.2E-09 Ry

     iteration # 37     ecut=    70.00 Ry     beta= 0.70
     Davidson diagonalization with overlap
     ethr =  4.73E-13,  avg # of iterations =  4.0

     total cpu time spent up to now is       51.8 secs

     total energy              =    -926.00021162 Ry
     Harris-Foulkes estimate   =    -926.00021162 Ry
     estimated scf accuracy    <          2.8E-09 Ry

     iteration # 38     ecut=    70.00 Ry     beta= 0.70
     Davidson diagonalization with overlap
     ethr =  4.73E-13,  avg # of iterations =  3.0

     total cpu time spent up to now is       52.4 secs

     total energy              =    -926.00021162 Ry
     Harris-Foulkes estimate   =    -926.00021162 Ry
     estimated scf accuracy    <          1.8E-09 Ry

     iteration # 39     ecut=    70.00 Ry     beta= 0.70
     Davidson diagonalization with overlap
     ethr =  4.73E-13,  avg # of iterations =  4.0

     total cpu time spent up to now is       53.4 secs

     End of self-consistent calculation

          k = 0.0000 0.0000 0.0000 ( 13071 PWs)   bands (ev):

   -60.9001 -60.8983 -60.8907 -60.8888 -34.8924 -34.8901 -34.8826 -34.8778
   -34.8027 -34.7536 -34.7347 -34.7036 -34.7014 -34.6875 -34.6734 -34.6711
   -14.1730 -14.0574 -13.1675 -13.0301 -12.9605 -12.9446 -12.5857 -12.5794
   -12.4462 -12.4405  -1.0225  -1.0110  -0.9452  -0.8433  -0.7259  -0.3242
     0.3246   0.4151   0.6000   0.6840   0.8279   0.8709   0.9965   1.0391
     1.1037   1.1352   1.3803   1.4226   1.5150   1.5741   1.6816   1.7033
     1.8875   2.1320   2.2744   2.3025   2.4047   2.5869   2.5880   2.6852

          k = 0.0000 0.2556 0.0000 ( 13040 PWs)   bands (ev):

   -60.8999 -60.8980 -60.8906 -60.8888 -34.8931 -34.8908 -34.8842 -34.8794
   -34.8025 -34.7534 -34.7346 -34.7035 -34.7013 -34.6875 -34.6734 -34.6711
   -14.1252 -14.0178 -13.1231 -13.0128 -12.9591 -12.9292 -12.6009 -12.5752
   -12.4483 -12.4180  -1.0521  -1.0404  -0.9695  -0.8758  -0.8370  -0.4964
    -0.3434  -0.1082  -0.0733   0.0560   0.5266   0.6432   0.7009   1.0758
     1.1772   1.3813   1.5375   1.5741   1.7119   1.7731   1.9018   2.0002
     2.2684   2.2761   2.2772   2.4443   2.4944   2.6930   2.7707   2.8522

          k = 0.3344 0.0000 0.0000 ( 13080 PWs)   bands (ev):

   -60.8963 -60.8943 -60.8915 -60.8897 -34.8867 -34.8846 -34.8809 -34.8773
   -34.7992 -34.7750 -34.7612 -34.7526 -34.7135 -34.7073 -34.6937 -34.6856
   -13.6378 -13.5076 -13.0765 -12.9190 -12.9128 -12.9011 -12.5266 -12.5259
   -12.4884 -12.4648  -1.4921  -1.4172  -0.7347  -0.6878  -0.6348  -0.2635
    -0.1751   0.1854   0.1956   0.4852   0.5018   0.5488   0.8802   1.0005
     1.0448   1.0893   1.1074   1.2028   1.3468   1.3602   1.5337   1.5776
     1.6390   2.0267   2.3222   2.4016   2.5168   2.6741   2.8643   2.8930

          k = 0.3344 0.2556 0.0000 ( 13061 PWs)   bands (ev):

   -60.8962 -60.8943 -60.8914 -60.8896 -34.8876 -34.8854 -34.8822 -34.8786
   -34.7990 -34.7749 -34.7611 -34.7524 -34.7135 -34.7073 -34.6937 -34.6856
   -13.5960 -13.4780 -13.0455 -12.9170 -12.9032 -12.8880 -12.5351 -12.5141
   -12.4587 -12.4352  -1.4901  -1.4145  -0.7746  -0.7439  -0.7110  -0.3825
    -0.3176  -0.2111  -0.1071   0.0611   0.1331   0.2812   0.6438   0.6729
     0.7429   0.8257   0.9196   1.0126   1.0923   1.5360   1.7729   1.9498
     2.1692   2.2391   2.5473   2.7689   2.7815   2.9160   3.0039   3.0165

     highest occupied level (ev):     3.0165

!    total energy              =    -926.00021162 Ry
     Harris-Foulkes estimate   =    -926.00021162 Ry
     estimated scf accuracy    <          2.0E-11 Ry

     The total energy is the sum of the following terms:

     one-electron contribution =    -624.73681667 Ry
     hartree contribution      =     349.59803968 Ry
     xc contribution           =    -178.21317555 Ry
     ewald contribution        =    -472.64825908 Ry

     convergence has been achieved in  39 iterations

     Forces acting on atoms (cartesian axes, Ry/au):

     atom    1 type  1   force =    -0.00000000    0.00624519    0.00152180
     atom    2 type  1   force =     0.00000000   -0.00624519   -0.00152180
     atom    3 type  1   force =     0.00000000   -0.00624519    0.00152180
     atom    4 type  1   force =    -0.00000000    0.00624519   -0.00152180
     atom    5 type  2   force =    -0.00000000    0.00145793   -0.00102597
     atom    6 type  2   force =     0.00000000   -0.00145793    0.00102597
     atom    7 type  2   force =     0.00000000   -0.00145793   -0.00102597
     atom    8 type  2   force =    -0.00000000    0.00145793    0.00102597
     atom    9 type  2   force =     0.00000000   -0.01048419    0.00061823
     atom   10 type  2   force =     0.00000000    0.01048419   -0.00061823
     atom   11 type  2   force =     0.00000000    0.01048419    0.00061823
     atom   12 type  2   force =     0.00000000   -0.00327540    0.00000000
     atom   13 type  2   force =     0.00000000    0.00327540    0.00000000
     atom   14 type  2   force =     0.00000000   -0.01048419   -0.00061823

     Total force =     0.025311     Total SCF correction =     0.000008


     Computing stress (Cartesian axis) and pressure

          total   stress  (Ry/bohr**3)                   (kbar)     P=   -1.97
  -0.00002316   0.00000000   0.00000000         -3.41      0.00      0.00
   0.00000000  -0.00000453   0.00000000          0.00     -0.67      0.00
   0.00000000   0.00000000  -0.00001252          0.00      0.00     -1.84


     number of scf cycles    =   2
     number of bfgs steps    =   1

     enthalpy old            =    -925.9992747839 Ry
     enthalpy new            =    -926.0002116201 Ry

     CASE: enthalpy_new < enthalpy_old

     new trust radius        =       0.0162002396 bohr
     new conv_thr            =            9.4E-12 Ry

     new unit-cell volume =   1299.66798 a.u.^3 (   192.59092 Ang^3 )
     density =      3.13638 g/cm^3

CELL_PARAMETERS (alat=  6.76758343)
   0.994452853   0.000000000   0.000000000
   0.000000000   1.301768610   0.000000000
   0.000000000   0.000000000   3.239019548

ATOMIC_POSITIONS (crystal)
V       -0.000000000   0.389353588   0.647781001
V        0.500000007   0.610646425   0.852219020
V        0.500000007   0.610646425   0.147780994
V        0.000000000   0.389353588   0.352219013
O        0.500000007   0.493807396   0.681169540
O        0.000000000   0.506192618   0.818830482
O        0.000000000   0.506192618   0.181169532
O        0.500000007   0.493807396   0.318830475
O        0.000000000   0.047565159   0.356841213
O        0.500000007   0.952434855   0.143158794
O        0.500000007   0.952434855   0.856841220
O        0.500000007   0.500164688   0.000000000
O        0.000000000   0.499835325   0.500000007
O        0.000000000   0.047565159   0.643158801



     Writing output data file v2o5.save/
     NEW-OLD atomic charge density approx. for the potential

     Check: negative core charge=   -0.000006
     extrapolated charge  111.34560, renormalised to  112.00000

     total cpu time spent up to now is       55.4 secs

     Self-consistent Calculation

     iteration #  1     ecut=    70.00 Ry     beta= 0.70
     Davidson diagonalization with overlap
     ethr =  1.00E-06,  avg # of iterations =  9.0

     total cpu time spent up to now is       57.7 secs

     total energy              =    -925.83940588 Ry
     Harris-Foulkes estimate   =    -928.99809566 Ry
     estimated scf accuracy    <       0.15858992 Ry

     iteration #  2     ecut=    70.00 Ry     beta= 0.70
     Davidson diagonalization with overlap
     ethr =  1.42E-04,  avg # of iterations =  5.0

     total cpu time spent up to now is       58.9 secs

     total energy              =    -925.81549794 Ry
     Harris-Foulkes estimate   =    -926.46939093 Ry
     estimated scf accuracy    <       2.85912612 Ry

     iteration #  3     ecut=    70.00 Ry     beta= 0.70
     Davidson diagonalization with overlap
     ethr =  1.42E-04,  avg # of iterations =  5.0

     total cpu time spent up to now is       60.3 secs

     total energy              =    -926.00483678 Ry
     Harris-Foulkes estimate   =    -926.02274575 Ry
     estimated scf accuracy    <       0.14459621 Ry

     iteration #  4     ecut=    70.00 Ry     beta= 0.70
     Davidson diagonalization with overlap
     ethr =  1.29E-04,  avg # of iterations =  1.0

     total cpu time spent up to now is       60.9 secs

     total energy              =    -925.99594244 Ry
     Harris-Foulkes estimate   =    -926.00624612 Ry
     estimated scf accuracy    <       0.10669445 Ry

     iteration #  5     ecut=    70.00 Ry     beta= 0.70
     Davidson diagonalization with overlap
     ethr =  9.53E-05,  avg # of iterations =  1.0

     total cpu time spent up to now is       61.4 secs

     total energy              =    -925.99768953 Ry
     Harris-Foulkes estimate   =    -925.99844105 Ry
     estimated scf accuracy    <       0.05327003 Ry

     iteration #  6     ecut=    70.00 Ry     beta= 0.70
     Davidson diagonalization with overlap
     ethr =  4.76E-05,  avg # of iterations =  1.5

     total cpu time spent up to now is       61.9 secs

     total energy              =    -925.99793525 Ry
     Harris-Foulkes estimate   =    -925.99914810 Ry
     estimated scf accuracy    <       0.04836141 Ry

     iteration #  7     ecut=    70.00 Ry     beta= 0.70
     Davidson diagonalization with overlap
     ethr =  4.32E-05,  avg # of iterations =  1.0

     total cpu time spent up to now is       62.4 secs

     total energy              =    -925.99785879 Ry
     Harris-Foulkes estimate   =    -925.99874777 Ry
     estimated scf accuracy    <       0.03639803 Ry

     iteration #  8     ecut=    70.00 Ry     beta= 0.70
     Davidson diagonalization with overlap
     ethr =  3.25E-05,  avg # of iterations =  1.0

     total cpu time spent up to now is       62.9 secs

     total energy              =    -925.99342718 Ry
     Harris-Foulkes estimate   =    -925.99852481 Ry
     estimated scf accuracy    <       0.03104914 Ry

     iteration #  9     ecut=    70.00 Ry     beta= 0.70
     Davidson diagonalization with overlap
     ethr =  2.77E-05,  avg # of iterations =  4.0

     total cpu time spent up to now is       63.8 secs

     total energy              =    -926.00143547 Ry
     Harris-Foulkes estimate   =    -926.00091948 Ry
     estimated scf accuracy    <       0.00554492 Ry

     iteration # 10     ecut=    70.00 Ry     beta= 0.70
     Davidson diagonalization with overlap
     ethr =  4.95E-06,  avg # of iterations =  4.0

     total cpu time spent up to now is       64.5 secs

     total energy              =    -926.00224887 Ry
     Harris-Foulkes estimate   =    -926.00178120 Ry
     estimated scf accuracy    <       0.00787476 Ry

     iteration # 11     ecut=    70.00 Ry     beta= 0.70
     Davidson diagonalization with overlap
     ethr =  4.95E-06,  avg # of iterations =  2.0

     total cpu time spent up to now is       65.0 secs

     total energy              =    -926.00188416 Ry
     Harris-Foulkes estimate   =    -926.00237220 Ry
     estimated scf accuracy    <       0.01107923 Ry

     iteration # 12     ecut=    70.00 Ry     beta= 0.70
     Davidson diagonalization with overlap
     ethr =  4.95E-06,  avg # of iterations =  1.0

     total cpu time spent up to now is       65.6 secs

     total energy              =    -926.00296119 Ry
     Harris-Foulkes estimate   =    -926.00193886 Ry
     estimated scf accuracy    <       0.01048262 Ry

     iteration # 13     ecut=    70.00 Ry     beta= 0.70
     Davidson diagonalization with overlap
     ethr =  4.95E-06,  avg # of iterations =  3.0

     total cpu time spent up to now is       66.2 secs

     total energy              =    -926.00326326 Ry
     Harris-Foulkes estimate   =    -926.00315471 Ry
     estimated scf accuracy    <       0.01751591 Ry

     iteration # 14     ecut=    70.00 Ry     beta= 0.70
     Davidson diagonalization with overlap
     ethr =  4.95E-06,  avg # of iterations =  1.0

     total cpu time spent up to now is       66.7 secs

     total energy              =    -926.00236873 Ry
     Harris-Foulkes estimate   =    -926.00333881 Ry
     estimated scf accuracy    <       0.01803614 Ry

     iteration # 15     ecut=    70.00 Ry     beta= 0.70
     Davidson diagonalization with overlap
     ethr =  4.95E-06,  avg # of iterations =  1.0

     total cpu time spent up to now is       67.2 secs

     total energy              =    -926.00209953 Ry
     Harris-Foulkes estimate   =    -926.00239750 Ry
     estimated scf accuracy    <       0.01637769 Ry

     iteration # 16     ecut=    70.00 Ry     beta= 0.70
     Davidson diagonalization with overlap
     ethr =  4.95E-06,  avg # of iterations =  1.0

     total cpu time spent up to now is       67.7 secs

     total energy              =    -926.00216483 Ry
     Harris-Foulkes estimate   =    -926.00212630 Ry
     estimated scf accuracy    <       0.01568512 Ry

     iteration # 17     ecut=    70.00 Ry     beta= 0.70
     Davidson diagonalization with overlap
     ethr =  4.95E-06,  avg # of iterations =  1.0

     total cpu time spent up to now is       68.2 secs

     total energy              =    -925.99721035 Ry
     Harris-Foulkes estimate   =    -926.00217468 Ry
     estimated scf accuracy    <       0.01581846 Ry

     iteration # 18     ecut=    70.00 Ry     beta= 0.70
     Davidson diagonalization with overlap
     ethr =  4.95E-06,  avg # of iterations =  5.0

     total cpu time spent up to now is       69.4 secs

     total energy              =    -926.00010705 Ry
     Harris-Foulkes estimate   =    -926.00108053 Ry
     estimated scf accuracy    <       0.00542860 Ry

     iteration # 19     ecut=    70.00 Ry     beta= 0.70
     Davidson diagonalization with overlap
     ethr =  4.85E-06,  avg # of iterations =  2.0

     total cpu time spent up to now is       69.9 secs

     total energy              =    -926.00009143 Ry
     Harris-Foulkes estimate   =    -926.00025533 Ry
     estimated scf accuracy    <       0.00235641 Ry

     iteration # 20     ecut=    70.00 Ry     beta= 0.70
     Davidson diagonalization with overlap
     ethr =  2.10E-06,  avg # of iterations =  4.0

     total cpu time spent up to now is       70.7 secs

     total energy              =    -926.00040199 Ry
     Harris-Foulkes estimate   =    -926.00043772 Ry
     estimated scf accuracy    <       0.00012371 Ry

     iteration # 21     ecut=    70.00 Ry     beta= 0.70
     Davidson diagonalization with overlap
     ethr =  1.10E-07,  avg # of iterations =  6.0

     total cpu time spent up to now is       71.8 secs

     total energy              =    -926.00044330 Ry
     Harris-Foulkes estimate   =    -926.00044566 Ry
     estimated scf accuracy    <       0.00001880 Ry

     iteration # 22     ecut=    70.00 Ry     beta= 0.70
     Davidson diagonalization with overlap
     ethr =  1.68E-08,  avg # of iterations =  3.5

     total cpu time spent up to now is       72.5 secs

     total energy              =    -926.00044174 Ry
     Harris-Foulkes estimate   =    -926.00044427 Ry
     estimated scf accuracy    <       0.00001624 Ry

     iteration # 23     ecut=    70.00 Ry     beta= 0.70
     Davidson diagonalization with overlap
     ethr =  1.45E-08,  avg # of iterations =  3.5

     total cpu time spent up to now is       73.1 secs

     total energy              =    -926.00044199 Ry
     Harris-Foulkes estimate   =    -926.00044254 Ry
     estimated scf accuracy    <       0.00000519 Ry

     iteration # 24     ecut=    70.00 Ry     beta= 0.70
     Davidson diagonalization with overlap
     ethr =  4.63E-09,  avg # of iterations =  4.0

     total cpu time spent up to now is       74.0 secs

     total energy              =    -926.00044309 Ry
     Harris-Foulkes estimate   =    -926.00044314 Ry
     estimated scf accuracy    <       0.00000042 Ry

     iteration # 25     ecut=    70.00 Ry     beta= 0.70
     Davidson diagonalization with overlap
     ethr =  3.79E-10,  avg # of iterations =  4.5

     total cpu time spent up to now is       74.9 secs

     total energy              =    -926.00044323 Ry
     Harris-Foulkes estimate   =    -926.00044322 Ry
     estimated scf accuracy    <       0.00000065 Ry

     iteration # 26     ecut=    70.00 Ry     beta= 0.70
     Davidson diagonalization with overlap
     ethr =  3.79E-10,  avg # of iterations =  1.0

     total cpu time spent up to now is       75.4 secs

     total energy              =    -926.00044326 Ry
     Harris-Foulkes estimate   =    -926.00044323 Ry
     estimated scf accuracy    <       0.00000067 Ry

     iteration # 27     ecut=    70.00 Ry     beta= 0.70
     Davidson diagonalization with overlap
     ethr =  3.79E-10,  avg # of iterations =  4.0

     total cpu time spent up to now is       76.2 secs

     total energy              =    -926.00044304 Ry
     Harris-Foulkes estimate   =    -926.00044333 Ry
     estimated scf accuracy    <       0.00000105 Ry

     iteration # 28     ecut=    70.00 Ry     beta= 0.70
     Davidson diagonalization with overlap
     ethr =  3.79E-10,  avg # of iterations =  4.8

     total cpu time spent up to now is       77.2 secs

     total energy              =    -926.00044314 Ry
     Harris-Foulkes estimate   =    -926.00044318 Ry
     estimated scf accuracy    <       0.00000049 Ry

     iteration # 29     ecut=    70.00 Ry     beta= 0.70
     Davidson diagonalization with overlap
     ethr =  3.79E-10,  avg # of iterations =  1.0

     total cpu time spent up to now is       77.7 secs

     total energy              =    -926.00044310 Ry
     Harris-Foulkes estimate   =    -926.00044314 Ry
     estimated scf accuracy    <       0.00000038 Ry

     iteration # 30     ecut=    70.00 Ry     beta= 0.70
     Davidson diagonalization with overlap
     ethr =  3.43E-10,  avg # of iterations =  1.8

     total cpu time spent up to now is       78.2 secs

     total energy              =    -926.00044311 Ry
     Harris-Foulkes estimate   =    -926.00044311 Ry
     estimated scf accuracy    <       0.00000022 Ry

     iteration # 31     ecut=    70.00 Ry     beta= 0.70
     Davidson diagonalization with overlap
     ethr =  1.97E-10,  avg # of iterations =  1.0

     total cpu time spent up to now is       78.8 secs

     total energy              =    -926.00044310 Ry
     Harris-Foulkes estimate   =    -926.00044311 Ry
     estimated scf accuracy    <       0.00000020 Ry

     iteration # 32     ecut=    70.00 Ry     beta= 0.70
     Davidson diagonalization with overlap
     ethr =  1.75E-10,  avg # of iterations =  1.0

     total cpu time spent up to now is       79.3 secs

     total energy              =    -926.00044306 Ry
     Harris-Foulkes estimate   =    -926.00044311 Ry
     estimated scf accuracy    <       0.00000015 Ry

     iteration # 33     ecut=    70.00 Ry     beta= 0.70
     Davidson diagonalization with overlap
     ethr =  1.31E-10,  avg # of iterations =  4.2

     total cpu time spent up to now is       80.3 secs

     total energy              =    -926.00044312 Ry
     Harris-Foulkes estimate   =    -926.00044314 Ry
     estimated scf accuracy    <       0.00000021 Ry

     iteration # 34     ecut=    70.00 Ry     beta= 0.70
     Davidson diagonalization with overlap
     ethr =  1.31E-10,  avg # of iterations =  1.0

     total cpu time spent up to now is       80.8 secs

     total energy              =    -926.00044311 Ry
     Harris-Foulkes estimate   =    -926.00044312 Ry
     estimated scf accuracy    <       0.00000014 Ry

     iteration # 35     ecut=    70.00 Ry     beta= 0.70
     Davidson diagonalization with overlap
     ethr =  1.25E-10,  avg # of iterations =  1.0

     total cpu time spent up to now is       81.4 secs

     total energy              =    -926.00044310 Ry
     Harris-Foulkes estimate   =    -926.00044311 Ry
     estimated scf accuracy    <       0.00000010 Ry

     iteration # 36     ecut=    70.00 Ry     beta= 0.70
     Davidson diagonalization with overlap
     ethr =  8.53E-11,  avg # of iterations =  4.2

     total cpu time spent up to now is       82.1 secs

     total energy              =    -926.00044311 Ry
     Harris-Foulkes estimate   =    -926.00044311 Ry
     estimated scf accuracy    <       0.00000001 Ry

     iteration # 37     ecut=    70.00 Ry     beta= 0.70
     Davidson diagonalization with overlap
     ethr =  1.03E-11,  avg # of iterations =  5.0

     total cpu time spent up to now is       83.1 secs

     total energy              =    -926.00044311 Ry
     Harris-Foulkes estimate   =    -926.00044312 Ry
     estimated scf accuracy    <          8.9E-09 Ry

     iteration # 38     ecut=    70.00 Ry     beta= 0.70
     Davidson diagonalization with overlap
     ethr =  7.95E-12,  avg # of iterations =  2.5

     total cpu time spent up to now is       83.7 secs

     total energy              =    -926.00044311 Ry
     Harris-Foulkes estimate   =    -926.00044311 Ry
     estimated scf accuracy    <          5.0E-09 Ry

     iteration # 39     ecut=    70.00 Ry     beta= 0.70
     Davidson diagonalization with overlap
     ethr =  4.46E-12,  avg # of iterations =  4.0

     total cpu time spent up to now is       84.5 secs

     total energy              =    -926.00044311 Ry
     Harris-Foulkes estimate   =    -926.00044311 Ry
     estimated scf accuracy    <          5.1E-10 Ry

     iteration # 40     ecut=    70.00 Ry     beta= 0.70
     Davidson diagonalization with overlap
     ethr =  4.53E-13,  avg # of iterations =  5.0

     total cpu time spent up to now is       85.7 secs

     total energy              =    -926.00044311 Ry
     Harris-Foulkes estimate   =    -926.00044311 Ry
     estimated scf accuracy    <          1.9E-09 Ry

     iteration # 41     ecut=    70.00 Ry     beta= 0.70
     Davidson diagonalization with overlap
     ethr =  4.53E-13,  avg # of iterations =  2.0

     total cpu time spent up to now is       86.3 secs

     total energy              =    -926.00044311 Ry
     Harris-Foulkes estimate   =    -926.00044311 Ry
     estimated scf accuracy    <          1.2E-09 Ry

     iteration # 42     ecut=    70.00 Ry     beta= 0.70
     Davidson diagonalization with overlap
     ethr =  4.53E-13,  avg # of iterations =  1.8

     total cpu time spent up to now is       86.8 secs

     total energy              =    -926.00044311 Ry
     Harris-Foulkes estimate   =    -926.00044311 Ry
     estimated scf accuracy    <          9.8E-10 Ry

     iteration # 43     ecut=    70.00 Ry     beta= 0.70
     Davidson diagonalization with overlap
     ethr =  4.53E-13,  avg # of iterations =  4.0

     total cpu time spent up to now is       87.7 secs

     total energy              =    -926.00044311 Ry
     Harris-Foulkes estimate   =    -926.00044311 Ry
     estimated scf accuracy    <          2.3E-11 Ry

     iteration # 44     ecut=    70.00 Ry     beta= 0.70
     Davidson diagonalization with overlap
     ethr =  1.00E-13,  avg # of iterations =  3.8

     total cpu time spent up to now is       88.4 secs

     total energy              =    -926.00044311 Ry
     Harris-Foulkes estimate   =    -926.00044311 Ry
     estimated scf accuracy    <          1.8E-11 Ry

     iteration # 45     ecut=    70.00 Ry     beta= 0.70
     Davidson diagonalization with overlap
     ethr =  1.00E-13,  avg # of iterations =  2.5

     total cpu time spent up to now is       89.0 secs

     total energy              =    -926.00044311 Ry
     Harris-Foulkes estimate   =    -926.00044311 Ry
     estimated scf accuracy    <          2.4E-11 Ry

     iteration # 46     ecut=    70.00 Ry     beta= 0.70
     Davidson diagonalization with overlap
     ethr =  1.00E-13,  avg # of iterations =  1.0

     total cpu time spent up to now is       89.5 secs

     total energy              =    -926.00044311 Ry
     Harris-Foulkes estimate   =    -926.00044311 Ry
     estimated scf accuracy    <          1.2E-11 Ry

     iteration # 47     ecut=    70.00 Ry     beta= 0.70
     Davidson diagonalization with overlap
     ethr =  1.00E-13,  avg # of iterations =  1.0

     total cpu time spent up to now is       90.0 secs

     End of self-consistent calculation

          k = 0.0000 0.0000 0.0000 ( 13071 PWs)   bands (ev):

   -60.8423 -60.8405 -60.8325 -60.8305 -34.8153 -34.8125 -34.8048 -34.7994
   -34.7517 -34.7022 -34.6816 -34.6536 -34.6513 -34.6342 -34.6221 -34.6198
   -14.1597 -14.0446 -13.1314 -13.0139 -12.9402 -12.9041 -12.5014 -12.4919
   -12.3557 -12.3532  -1.0046  -0.9928  -0.9321  -0.8332  -0.6907  -0.2809
     0.3664   0.4992   0.6743   0.7086   0.8956   0.9388   1.1059   1.1379
     1.1838   1.2399   1.4489   1.5283   1.5521   1.6941   1.7689   1.7903
     1.9336   2.1722   2.3619   2.3917   2.4291   2.6242   2.6521   2.7483

          k = 0.0000 0.2561 0.0000 ( 13040 PWs)   bands (ev):

   -60.8422 -60.8402 -60.8324 -60.8305 -34.8161 -34.8133 -34.8065 -34.8010
   -34.7515 -34.7020 -34.6816 -34.6535 -34.6512 -34.6342 -34.6221 -34.6198
   -14.1135 -14.0062 -13.0890 -12.9978 -12.9384 -12.8897 -12.5147 -12.4863
   -12.3568 -12.3242  -1.0331  -1.0211  -0.9522  -0.8636  -0.8004  -0.4421
    -0.2994  -0.0602  -0.0034   0.1343   0.6102   0.7150   0.7733   1.1673
     1.2721   1.4370   1.5738   1.6236   1.7655   1.8917   2.0010   2.1111
     2.3201   2.3505   2.3575   2.4807   2.5271   2.7567   2.8258   2.9276

          k = 0.3352 0.0000 0.0000 ( 13080 PWs)   bands (ev):

   -60.8384 -60.8363 -60.8333 -60.8315 -34.8092 -34.8069 -34.8025 -34.7987
   -34.7492 -34.7257 -34.7110 -34.7037 -34.6620 -34.6565 -34.6422 -34.6328
   -13.6152 -13.4863 -13.0371 -12.8979 -12.8870 -12.8607 -12.4405 -12.4365
   -12.3944 -12.3767  -1.4859  -1.4100  -0.7076  -0.6731  -0.5989  -0.2383
    -0.1516   0.2253   0.2291   0.5425   0.5720   0.6333   0.9531   1.0807
     1.1305   1.1864   1.2039   1.3048   1.4361   1.4549   1.5991   1.6282
     1.7390   2.0777   2.3828   2.4836   2.5722   2.7446   2.9071   2.9307

          k = 0.3352 0.2561 0.0000 ( 13061 PWs)   bands (ev):

   -60.8383 -60.8363 -60.8332 -60.8314 -34.8101 -34.8078 -34.8039 -34.8000
   -34.7490 -34.7255 -34.7108 -34.7036 -34.6620 -34.6565 -34.6422 -34.6329
   -13.5754 -13.4581 -13.0097 -12.8959 -12.8756 -12.8481 -12.4458 -12.4214
   -12.3669 -12.3404  -1.4844  -1.4077  -0.7448  -0.7243  -0.6722  -0.3331
    -0.2902  -0.1821  -0.0576   0.1285   0.2042   0.3207   0.7220   0.7321
     0.8100   0.8989   1.0007   1.0858   1.1838   1.6321   1.8379   2.0518
     2.2394   2.2969   2.6225   2.8311   2.8465   2.9869   3.0506   3.0682

     highest occupied level (ev):     3.0682

!    total energy              =    -926.00044311 Ry
     Harris-Foulkes estimate   =    -926.00044311 Ry
     estimated scf accuracy    <          8.3E-12 Ry

     The total energy is the sum of the following terms:

     one-electron contribution =    -621.81938228 Ry
     hartree contribution      =     348.38146475 Ry
     xc contribution           =    -178.22006375 Ry
     ewald contribution        =    -474.34246184 Ry

     convergence has been achieved in  47 iterations

     Forces acting on atoms (cartesian axes, Ry/au):

     atom    1 type  1   force =    -0.00000000   -0.00946983   -0.00017776
     atom    2 type  1   force =     0.00000000    0.00946983    0.00017776
     atom    3 type  1   force =     0.00000000    0.00946983   -0.00017776
     atom    4 type  1   force =    -0.00000000   -0.00946983    0.00017776
     atom    5 type  2   force =     0.00000000    0.00258983   -0.00120240
     atom    6 type  2   force =     0.00000000   -0.00258983    0.00120240
     atom    7 type  2   force =     0.00000000   -0.00258983   -0.00120240
     atom    8 type  2   force =    -0.00000000    0.00258983    0.00120240
     atom    9 type  2   force =     0.00000000    0.00200063    0.00024058
     atom   10 type  2   force =    -0.00000000   -0.00200063   -0.00024058
     atom   11 type  2   force =     0.00000000   -0.00200063    0.00024058
     atom   12 type  2   force =     0.00000000   -0.00463408    0.00000000
     atom   13 type  2   force =     0.00000000    0.00463408    0.00000000
     atom   14 type  2   force =     0.00000000    0.00200063   -0.00024058

     Total force =     0.021228     Total SCF correction =     0.000009


     Computing stress (Cartesian axis) and pressure

          total   stress  (Ry/bohr**3)                   (kbar)     P=    0.21
   0.00005433   0.00000000   0.00000000          7.99      0.00      0.00
   0.00000000  -0.00010120   0.00000000          0.00    -14.89      0.00
   0.00000000   0.00000000   0.00005110          0.00      0.00      7.52


     number of scf cycles    =   3
     number of bfgs steps    =   2

     enthalpy old            =    -926.0002116201 Ry
     enthalpy new            =    -926.0004431147 Ry

     CASE: enthalpy_new < enthalpy_old

     new trust radius        =       0.0149326097 bohr
     new conv_thr            =            2.3E-12 Ry

     new unit-cell volume =   1298.09130 a.u.^3 (   192.35728 Ang^3 )
     density =      3.14019 g/cm^3

CELL_PARAMETERS (alat=  6.76758343)
   0.994832315   0.000000000   0.000000000
   0.000000000   1.299072589   0.000000000
   0.000000000   0.000000000   3.240567553

ATOMIC_POSITIONS (crystal)
V       -0.000000000   0.388982554   0.647810031
V        0.500000007   0.611017460   0.852189990
V        0.500000007   0.611017460   0.147810024
V        0.000000000   0.388982554   0.352189983
O        0.500000007   0.494096535   0.681107451
O        0.000000000   0.505903479   0.818892571
O        0.000000000   0.505903479   0.181107443
O        0.500000007   0.494096535   0.318892564
O        0.000000000   0.047103314   0.356864086
O        0.500000007   0.952896700   0.143135921
O        0.500000007   0.952896700   0.856864093
O        0.500000007   0.499608348   0.000000000
O        0.000000000   0.500391665   0.500000007
O        0.000000000   0.047103314   0.643135928



     Writing output data file v2o5.save/
     NEW-OLD atomic charge density approx. for the potential

     Check: negative core charge=   -0.000006
     extrapolated charge  111.86397, renormalised to  112.00000

     total cpu time spent up to now is       92.0 secs

     Self-consistent Calculation

     iteration #  1     ecut=    70.00 Ry     beta= 0.70
     Davidson diagonalization with overlap
     ethr =  1.00E-06,  avg # of iterations =  6.5

     total cpu time spent up to now is       93.5 secs

     total energy              =    -925.99617455 Ry
     Harris-Foulkes estimate   =    -926.61980166 Ry
     estimated scf accuracy    <       0.00450486 Ry

     iteration #  2     ecut=    70.00 Ry     beta= 0.70
     Davidson diagonalization with overlap
     ethr =  4.02E-06,  avg # of iterations =  5.5

     total cpu time spent up to now is       94.9 secs

     total energy              =    -925.99257237 Ry
     Harris-Foulkes estimate   =    -926.01569904 Ry
     estimated scf accuracy    <       0.11760373 Ry

     iteration #  3     ecut=    70.00 Ry     beta= 0.70
     Davidson diagonalization with overlap
     ethr =  4.02E-06,  avg # of iterations =  5.0

     total cpu time spent up to now is       96.2 secs

     total energy              =    -926.00095798 Ry
     Harris-Foulkes estimate   =    -926.00136507 Ry
     estimated scf accuracy    <       0.00289987 Ry

     iteration #  4     ecut=    70.00 Ry     beta= 0.70
     Davidson diagonalization with overlap
     ethr =  2.59E-06,  avg # of iterations =  1.0

     total cpu time spent up to now is       96.8 secs

     total energy              =    -926.00056252 Ry
     Harris-Foulkes estimate   =    -926.00100678 Ry
     estimated scf accuracy    <       0.00206879 Ry

     iteration #  5     ecut=    70.00 Ry     beta= 0.70
     Davidson diagonalization with overlap
     ethr =  1.85E-06,  avg # of iterations =  3.0

     total cpu time spent up to now is       97.5 secs

     total energy              =    -926.00082664 Ry
     Harris-Foulkes estimate   =    -926.00082569 Ry
     estimated scf accuracy    <       0.00007645 Ry

     iteration #  6     ecut=    70.00 Ry     beta= 0.70
     Davidson diagonalization with overlap
     ethr =  6.83E-08,  avg # of iterations =  5.0

     total cpu time spent up to now is       98.4 secs

     total energy              =    -926.00087090 Ry
     Harris-Foulkes estimate   =    -926.00087142 Ry
     estimated scf accuracy    <       0.00010778 Ry

     iteration #  7     ecut=    70.00 Ry     beta= 0.70
     Davidson diagonalization with overlap
     ethr =  6.83E-08,  avg # of iterations =  1.0

     total cpu time spent up to now is       99.0 secs

     total energy              =    -926.00087077 Ry
     Harris-Foulkes estimate   =    -926.00087119 Ry
     estimated scf accuracy    <       0.00010965 Ry

     iteration #  8     ecut=    70.00 Ry     beta= 0.70
     Davidson diagonalization with overlap
     ethr =  6.83E-08,  avg # of iterations =  1.0

     total cpu time spent up to now is       99.5 secs

     total energy              =    -926.00087554 Ry
     Harris-Foulkes estimate   =    -926.00087092 Ry
     estimated scf accuracy    <       0.00010899 Ry

     iteration #  9     ecut=    70.00 Ry     beta= 0.70
     Davidson diagonalization with overlap
     ethr =  6.83E-08,  avg # of iterations =  1.0

     total cpu time spent up to now is      100.0 secs

     total energy              =    -926.00094282 Ry
     Harris-Foulkes estimate   =    -926.00087683 Ry
     estimated scf accuracy    <       0.00013106 Ry

     iteration # 10     ecut=    70.00 Ry     beta= 0.70
     Davidson diagonalization with overlap
     ethr =  6.83E-08,  avg # of iterations =  5.0

     total cpu time spent up to now is      101.4 secs

     total energy              =    -926.00114353 Ry
     Harris-Foulkes estimate   =    -926.00109307 Ry
     estimated scf accuracy    <       0.00194340 Ry

     iteration # 11     ecut=    70.00 Ry     beta= 0.70
     Davidson diagonalization with overlap
     ethr =  6.83E-08,  avg # of iterations =  2.5

     total cpu time spent up to now is      102.0 secs

     total energy              =    -926.00112178 Ry
     Harris-Foulkes estimate   =    -926.00114717 Ry
     estimated scf accuracy    <       0.00211252 Ry

     iteration # 12     ecut=    70.00 Ry     beta= 0.70
     Davidson diagonalization with overlap
     ethr =  6.83E-08,  avg # of iterations =  1.0

     total cpu time spent up to now is      102.5 secs

     total energy              =    -926.00107041 Ry
     Harris-Foulkes estimate   =    -926.00112356 Ry
     estimated scf accuracy    <       0.00209542 Ry

     iteration # 13     ecut=    70.00 Ry     beta= 0.70
     Davidson diagonalization with overlap
     ethr =  6.83E-08,  avg # of iterations =  2.0

     total cpu time spent up to now is      103.1 secs

     total energy              =    -926.00107886 Ry
     Harris-Foulkes estimate   =    -926.00107166 Ry
     estimated scf accuracy    <       0.00194301 Ry

     iteration # 14     ecut=    70.00 Ry     beta= 0.70
     Davidson diagonalization with overlap
     ethr =  6.83E-08,  avg # of iterations =  2.5

     total cpu time spent up to now is      103.7 secs

     total energy              =    -926.00043577 Ry
     Harris-Foulkes estimate   =    -926.00107971 Ry
     estimated scf accuracy    <       0.00193973 Ry

     iteration # 15     ecut=    70.00 Ry     beta= 0.70
     Davidson diagonalization with overlap
     ethr =  6.83E-08,  avg # of iterations =  5.5

     total cpu time spent up to now is      105.1 secs

     total energy              =    -926.00092035 Ry
     Harris-Foulkes estimate   =    -926.00093651 Ry
     estimated scf accuracy    <       0.00070978 Ry

     iteration # 16     ecut=    70.00 Ry     beta= 0.70
     Davidson diagonalization with overlap
     ethr =  6.83E-08,  avg # of iterations =  1.0

     total cpu time spent up to now is      105.6 secs

     total energy              =    -926.00075865 Ry
     Harris-Foulkes estimate   =    -926.00092155 Ry
     estimated scf accuracy    <       0.00066679 Ry

     iteration # 17     ecut=    70.00 Ry     beta= 0.70
     Davidson diagonalization with overlap
     ethr =  6.83E-08,  avg # of iterations =  5.0

     total cpu time spent up to now is      106.9 secs

     total energy              =    -926.00084279 Ry
     Harris-Foulkes estimate   =    -926.00086187 Ry
     estimated scf accuracy    <       0.00007461 Ry

     iteration # 18     ecut=    70.00 Ry     beta= 0.70
     Davidson diagonalization with overlap
     ethr =  6.66E-08,  avg # of iterations =  3.8

     total cpu time spent up to now is      107.5 secs

     total energy              =    -926.00084275 Ry
     Harris-Foulkes estimate   =    -926.00084767 Ry
     estimated scf accuracy    <       0.00001442 Ry

     iteration # 19     ecut=    70.00 Ry     beta= 0.70
     Davidson diagonalization with overlap
     ethr =  1.29E-08,  avg # of iterations =  4.5

     total cpu time spent up to now is      108.7 secs

     total energy              =    -926.00085064 Ry
     Harris-Foulkes estimate   =    -926.00085417 Ry
     estimated scf accuracy    <       0.00002308 Ry

     iteration # 20     ecut=    70.00 Ry     beta= 0.70
     Davidson diagonalization with overlap
     ethr =  1.29E-08,  avg # of iterations =  1.0

     total cpu time spent up to now is      109.2 secs

     total energy              =    -926.00084853 Ry
     Harris-Foulkes estimate   =    -926.00085103 Ry
     estimated scf accuracy    <       0.00001332 Ry

     iteration # 21     ecut=    70.00 Ry     beta= 0.70
     Davidson diagonalization with overlap
     ethr =  1.19E-08,  avg # of iterations =  3.8

     total cpu time spent up to now is      110.1 secs

     total energy              =    -926.00085082 Ry
     Harris-Foulkes estimate   =    -926.00085096 Ry
     estimated scf accuracy    <       0.00000117 Ry

     iteration # 22     ecut=    70.00 Ry     beta= 0.70
     Davidson diagonalization with overlap
     ethr =  1.04E-09,  avg # of iterations =  4.5

     total cpu time spent up to now is      110.8 secs

     total energy              =    -926.00085062 Ry
     Harris-Foulkes estimate   =    -926.00085095 Ry
     estimated scf accuracy    <       0.00000086 Ry

     iteration # 23     ecut=    70.00 Ry     beta= 0.70
     Davidson diagonalization with overlap
     ethr =  7.72E-10,  avg # of iterations =  4.5

     total cpu time spent up to now is      111.8 secs

     total energy              =    -926.00085081 Ry
     Harris-Foulkes estimate   =    -926.00085083 Ry
     estimated scf accuracy    <       0.00000007 Ry

     iteration # 24     ecut=    70.00 Ry     beta= 0.70
     Davidson diagonalization with overlap
     ethr =  6.38E-11,  avg # of iterations =  4.8

     total cpu time spent up to now is      112.7 secs

     total energy              =    -926.00085082 Ry
     Harris-Foulkes estimate   =    -926.00085082 Ry
     estimated scf accuracy    <       0.00000001 Ry

     iteration # 25     ecut=    70.00 Ry     beta= 0.70
     Davidson diagonalization with overlap
     ethr =  1.26E-11,  avg # of iterations =  4.2

     total cpu time spent up to now is      113.6 secs

     total energy              =    -926.00085082 Ry
     Harris-Foulkes estimate   =    -926.00085082 Ry
     estimated scf accuracy    <          1.0E-09 Ry

     iteration # 26     ecut=    70.00 Ry     beta= 0.70
     Davidson diagonalization with overlap
     ethr =  9.00E-13,  avg # of iterations =  4.2

     total cpu time spent up to now is      114.4 secs

     total energy              =    -926.00085082 Ry
     Harris-Foulkes estimate   =    -926.00085082 Ry
     estimated scf accuracy    <          1.2E-09 Ry

     iteration # 27     ecut=    70.00 Ry     beta= 0.70
     Davidson diagonalization with overlap
     ethr =  9.00E-13,  avg # of iterations =  4.0

     total cpu time spent up to now is      115.2 secs

     total energy              =    -926.00085082 Ry
     Harris-Foulkes estimate   =    -926.00085082 Ry
     estimated scf accuracy    <          7.3E-11 Ry

     iteration # 28     ecut=    70.00 Ry     beta= 0.70
     Davidson diagonalization with overlap
     ethr =  1.00E-13,  avg # of iterations =  5.0

     total cpu time spent up to now is      116.5 secs

     total energy              =    -926.00085082 Ry
     Harris-Foulkes estimate   =    -926.00085082 Ry
     estimated scf accuracy    <          3.4E-10 Ry

     iteration # 29     ecut=    70.00 Ry     beta= 0.70
     Davidson diagonalization with overlap
     ethr =  1.00E-13,  avg # of iterations =  4.5

     total cpu time spent up to now is      117.4 secs

     total energy              =    -926.00085082 Ry
     Harris-Foulkes estimate   =    -926.00085082 Ry
     estimated scf accuracy    <          5.4E-11 Ry

     iteration # 30     ecut=    70.00 Ry     beta= 0.70
     Davidson diagonalization with overlap
     ethr =  1.00E-13,  avg # of iterations =  3.2

     total cpu time spent up to now is      118.2 secs

     End of self-consistent calculation

          k = 0.0000 0.0000 0.0000 ( 13071 PWs)   bands (ev):

   -60.8254 -60.8236 -60.8157 -60.8137 -34.8063 -34.8037 -34.7955 -34.7905
   -34.7312 -34.6820 -34.6618 -34.6347 -34.6324 -34.6145 -34.6034 -34.6011
   -14.1330 -14.0186 -13.1069 -12.9907 -12.9107 -12.8741 -12.4963 -12.4896
   -12.3543 -12.3490  -0.9776  -0.9662  -0.8967  -0.8031  -0.6586  -0.2589
     0.3896   0.5075   0.6901   0.7324   0.9022   0.9455   1.1092   1.1413
     1.1881   1.2440   1.4699   1.5226   1.5878   1.6860   1.7742   1.7961
     1.9463   2.1989   2.3657   2.3952   2.4500   2.6443   2.6589   2.7617

          k = 0.0000 0.2566 0.0000 ( 13040 PWs)   bands (ev):

   -60.8253 -60.8233 -60.8156 -60.8137 -34.8071 -34.8045 -34.7972 -34.7922
   -34.7310 -34.6818 -34.6618 -34.6346 -34.6323 -34.6145 -34.6034 -34.6011
   -14.0850 -13.9788 -13.0621 -12.9735 -12.9085 -12.8581 -12.5114 -12.4841
   -12.3545 -12.3229  -1.0075  -0.9959  -0.9197  -0.8348  -0.7732  -0.4371
    -0.2795  -0.0489   0.0015   0.1419   0.6095   0.7164   0.7747   1.1697
     1.2724   1.4622   1.6108   1.6400   1.7823   1.8865   2.0053   2.1094
     2.3462   2.3582   2.3659   2.5017   2.5480   2.7747   2.8452   2.9418

          k = 0.3351 0.0000 0.0000 ( 13080 PWs)   bands (ev):

[...]


     PseudoPot. # 1 for V  read from file:
     /home/mpicuntureo/pseudos/v.nc.upf
     MD5 check sum: 40fb93c06b4f9d8c28c5ccd071294a04
     Pseudo is Norm-conserving + core correction, Zval = 13.0
     Generated using ONCVPSP code by D. R. Hamann
     Using radial grid of 1536 points,  6 beta functions with: 
                l(1) =   0
                l(2) =   0
                l(3) =   1
                l(4) =   1
                l(5) =   2
                l(6) =   2

     PseudoPot. # 2 for O  read from file:
     /home/mpicuntureo/pseudos/o.nc.upf
     MD5 check sum: 3e3f909f7470e8921608ab6b1f57bbae
     Pseudo is Norm-conserving + core correction, Zval =  6.0
     Generated using ONCVPSP code by D. R. Hamann
     Using radial grid of  936 points,  5 beta functions with: 
                l(1) =   0
                l(2) =   0
                l(3) =   1
                l(4) =   1
                l(5) =   2

     vdW kernel table read from file vdW_kernel_table
     MD5 check sum: 8c4337f4b28e1601c069d7ef7b6561bc

     atomic species   valence    mass     pseudopotential
        V             13.00    50.94150     V ( 1.00)
        O              6.00    15.99940     O ( 1.00)

      8 Sym. Ops., with inversion, found ( 4 have fractional translation)



   Cartesian axes

     site n.     atom                  positions (alat units)
         1           V   tau(   1) = (  -0.0000000   0.4945100   2.1060326  )
         2           V   tau(   2) = (   0.4979202   0.7770820   2.7734396  )
         3           V   tau(   3) = (   0.4979202   0.7770820   0.4795418  )
         4           V   tau(   4) = (  -0.0000000   0.4945100   1.1469489  )
         5           O   tau(   5) = (   0.4979202   0.6313373   2.2152593  )
         6           O   tau(   6) = (   0.0000000   0.6402547   2.6642129  )
         7           O   tau(   7) = (   0.0000000   0.6402547   0.5887686  )
         8           O   tau(   8) = (   0.4979202   0.6313373   1.0377221  )
         9           O   tau(   9) = (  -0.0000000   0.0500629   1.1625359  )
        10           O   tau(  10) = (   0.4979202   1.2215291   0.4639548  )
        11           O   tau(  11) = (   0.4979202   1.2215291   2.7890266  )
        12           O   tau(  12) = (   0.4979202   0.6327089  -0.0000000  )
        13           O   tau(  13) = (   0.0000000   0.6388832   1.6264907  )
        14           O   tau(  14) = (   0.0000000   0.0500629   2.0904456  )

     number of k points=     4
                       cart. coord. in units 2pi/alat
        k(    1) = (   0.0000000   0.0000000   0.0000000), wk =   0.2222222
        k(    2) = (   0.0000000   0.2621386   0.0000000), wk =   0.4444444
        k(    3) = (   0.3347257   0.0000000   0.0000000), wk =   0.4444444
        k(    4) = (   0.3347257   0.2621386   0.0000000), wk =   0.8888889

     Dense  grid:   100967 G-vectors     FFT dimensions: (  36,  45, 120)

     Estimated max dynamical RAM per process >      13.60 MB

     Estimated total dynamical RAM >     435.15 MB

     Check: negative core charge=   -0.000007

     Initial potential from superposition of free atoms

     starting charge  111.99579, renormalised to  112.00000
     Starting wfcs are   80 randomized atomic wfcs

     total cpu time spent up to now is      427.6 secs

     Self-consistent Calculation

     iteration #  1     ecut=    70.00 Ry     beta= 0.70
     Davidson diagonalization with overlap
     ethr =  1.00E-06,  avg # of iterations =  7.8

     total cpu time spent up to now is      430.1 secs

     total energy              =    -920.80796315 Ry
     Harris-Foulkes estimate   =    -927.68169303 Ry
     estimated scf accuracy    <       8.61280955 Ry

     iteration #  2     ecut=    70.00 Ry     beta= 0.70
     Davidson diagonalization with overlap
     ethr =  7.69E-03,  avg # of iterations =  6.2

     total cpu time spent up to now is      431.8 secs

     total energy              =    -911.08780165 Ry
     Harris-Foulkes estimate   =    -944.70274836 Ry
     estimated scf accuracy    <     150.12774585 Ry

     iteration #  3     ecut=    70.00 Ry     beta= 0.70
     Davidson diagonalization with overlap
     ethr =  7.69E-03,  avg # of iterations =  5.8

     total cpu time spent up to now is      433.3 secs

     total energy              =    -925.71663216 Ry
     Harris-Foulkes estimate   =    -926.62202128 Ry
     estimated scf accuracy    <       2.92319504 Ry

     iteration #  4     ecut=    70.00 Ry     beta= 0.70
     Davidson diagonalization with overlap
     ethr =  2.61E-03,  avg # of iterations =  4.0

     total cpu time spent up to now is      434.1 secs

     total energy              =    -925.93545478 Ry
     Harris-Foulkes estimate   =    -926.08413022 Ry
     estimated scf accuracy    <       0.92130882 Ry

     iteration #  5     ecut=    70.00 Ry     beta= 0.70
     Davidson diagonalization with overlap
     ethr =  8.23E-04,  avg # of iterations =  3.8

     total cpu time spent up to now is      434.9 secs

     total energy              =    -925.85098266 Ry
     Harris-Foulkes estimate   =    -925.99854116 Ry
     estimated scf accuracy    <       0.49862515 Ry

     iteration #  6     ecut=    70.00 Ry     beta= 0.70
     Davidson diagonalization with overlap
     ethr =  4.45E-04,  avg # of iterations =  4.2

     total cpu time spent up to now is      435.9 secs

     total energy              =    -926.00417727 Ry
     Harris-Foulkes estimate   =    -926.02855338 Ry
     estimated scf accuracy    <       0.26173404 Ry

     iteration #  7     ecut=    70.00 Ry     beta= 0.70
     Davidson diagonalization with overlap
     ethr =  2.34E-04,  avg # of iterations =  1.2

     total cpu time spent up to now is      436.5 secs

     total energy              =    -925.96373941 Ry
     Harris-Foulkes estimate   =    -926.00693207 Ry
     estimated scf accuracy    <       0.19780855 Ry

     iteration #  8     ecut=    70.00 Ry     beta= 0.70
     Davidson diagonalization with overlap
     ethr =  1.77E-04,  avg # of iterations =  3.8

     total cpu time spent up to now is      437.4 secs

     total energy              =    -925.99622987 Ry
     Harris-Foulkes estimate   =    -925.99792060 Ry
     estimated scf accuracy    <       0.01034900 Ry

     iteration #  9     ecut=    70.00 Ry     beta= 0.70
     Davidson diagonalization with overlap
     ethr =  9.24E-06,  avg # of iterations =  3.5

     total cpu time spent up to now is      438.2 secs

     total energy              =    -925.99666579 Ry
     Harris-Foulkes estimate   =    -925.99757772 Ry
     estimated scf accuracy    <       0.00686114 Ry

     iteration # 10     ecut=    70.00 Ry     beta= 0.70
     Davidson diagonalization with overlap
     ethr =  6.13E-06,  avg # of iterations =  4.0

     total cpu time spent up to now is      438.9 secs

     total energy              =    -925.99656543 Ry
     Harris-Foulkes estimate   =    -925.99712470 Ry
     estimated scf accuracy    <       0.00246007 Ry

     iteration # 11     ecut=    70.00 Ry     beta= 0.70
     Davidson diagonalization with overlap
     ethr =  2.20E-06,  avg # of iterations =  4.0

     total cpu time spent up to now is      439.8 secs

     total energy              =    -925.99698451 Ry
     Harris-Foulkes estimate   =    -925.99700045 Ry
     estimated scf accuracy    <       0.00016094 Ry

     iteration # 12     ecut=    70.00 Ry     beta= 0.70
     Davidson diagonalization with overlap
     ethr =  1.44E-07,  avg # of iterations =  5.0

     total cpu time spent up to now is      440.8 secs

     total energy              =    -925.99705466 Ry
     Harris-Foulkes estimate   =    -925.99706124 Ry
     estimated scf accuracy    <       0.00002347 Ry

     iteration # 13     ecut=    70.00 Ry     beta= 0.70
     Davidson diagonalization with overlap
     ethr =  2.10E-08,  avg # of iterations =  4.5

     total cpu time spent up to now is      441.8 secs

     total energy              =    -925.99706050 Ry
     Harris-Foulkes estimate   =    -925.99706108 Ry
     estimated scf accuracy    <       0.00000148 Ry

     iteration # 14     ecut=    70.00 Ry     beta= 0.70
     Davidson diagonalization with overlap
     ethr =  1.32E-09,  avg # of iterations =  5.0

     total cpu time spent up to now is      442.9 secs

     total energy              =    -925.99706100 Ry
     Harris-Foulkes estimate   =    -925.99706101 Ry
     estimated scf accuracy    <       0.00000022 Ry

     iteration # 15     ecut=    70.00 Ry     beta= 0.70
     Davidson diagonalization with overlap
     ethr =  1.97E-10,  avg # of iterations =  4.5

     total cpu time spent up to now is      443.8 secs

     total energy              =    -925.99706097 Ry
     Harris-Foulkes estimate   =    -925.99706104 Ry
     estimated scf accuracy    <       0.00000030 Ry

     iteration # 16     ecut=    70.00 Ry     beta= 0.70
     Davidson diagonalization with overlap
     ethr =  1.97E-10,  avg # of iterations =  3.5

     total cpu time spent up to now is      444.6 secs

     total energy              =    -925.99706097 Ry
     Harris-Foulkes estimate   =    -925.99706099 Ry
     estimated scf accuracy    <       0.00000010 Ry

     iteration # 17     ecut=    70.00 Ry     beta= 0.70
     Davidson diagonalization with overlap
     ethr =  9.33E-11,  avg # of iterations =  4.2

     total cpu time spent up to now is      445.4 secs

     total energy              =    -925.99706098 Ry
     Harris-Foulkes estimate   =    -925.99706098 Ry
     estimated scf accuracy    <          7.9E-09 Ry

     iteration # 18     ecut=    70.00 Ry     beta= 0.70
     Davidson diagonalization with overlap
     ethr =  7.08E-12,  avg # of iterations =  4.8

     total cpu time spent up to now is      446.4 secs

     total energy              =    -925.99706099 Ry
     Harris-Foulkes estimate   =    -925.99706099 Ry
     estimated scf accuracy    <          8.6E-10 Ry

     iteration # 19     ecut=    70.00 Ry     beta= 0.70
     Davidson diagonalization with overlap
     ethr =  7.67E-13,  avg # of iterations =  5.0

     total cpu time spent up to now is      447.3 secs

     total energy              =    -925.99706099 Ry
     Harris-Foulkes estimate   =    -925.99706099 Ry
     estimated scf accuracy    <          9.1E-10 Ry

     iteration # 20     ecut=    70.00 Ry     beta= 0.70
     Davidson diagonalization with overlap
     ethr =  7.67E-13,  avg # of iterations =  1.8

     total cpu time spent up to now is      447.9 secs

     total energy              =    -925.99706099 Ry
     Harris-Foulkes estimate   =    -925.99706099 Ry
     estimated scf accuracy    <          6.0E-10 Ry

     iteration # 21     ecut=    70.00 Ry     beta= 0.70
     Davidson diagonalization with overlap
     ethr =  5.34E-13,  avg # of iterations =  4.0

     total cpu time spent up to now is      448.9 secs

     total energy              =    -925.99706099 Ry
     Harris-Foulkes estimate   =    -925.99706099 Ry
     estimated scf accuracy    <          2.8E-10 Ry

     iteration # 22     ecut=    70.00 Ry     beta= 0.70
     Davidson diagonalization with overlap
     ethr =  2.54E-13,  avg # of iterations =  1.8

     total cpu time spent up to now is      449.5 secs

     total energy              =    -925.99706099 Ry
     Harris-Foulkes estimate   =    -925.99706099 Ry
     estimated scf accuracy    <          1.6E-10 Ry

     iteration # 23     ecut=    70.00 Ry     beta= 0.70
     Davidson diagonalization with overlap
     ethr =  1.45E-13,  avg # of iterations =  4.0

     total cpu time spent up to now is      450.3 secs

     total energy              =    -925.99706099 Ry
     Harris-Foulkes estimate   =    -925.99706099 Ry
     estimated scf accuracy    <          1.0E-11 Ry

     iteration # 24     ecut=    70.00 Ry     beta= 0.70
     Davidson diagonalization with overlap
     ethr =  1.00E-13,  avg # of iterations =  1.0

     total cpu time spent up to now is      450.9 secs

     total energy              =    -925.99706099 Ry
     Harris-Foulkes estimate   =    -925.99706099 Ry
     estimated scf accuracy    <          5.9E-12 Ry

     iteration # 25     ecut=    70.00 Ry     beta= 0.70
     Davidson diagonalization with overlap
     ethr =  1.00E-13,  avg # of iterations =  1.0

     total cpu time spent up to now is      451.4 secs

     total energy              =    -925.99706099 Ry
     Harris-Foulkes estimate   =    -925.99706099 Ry
     estimated scf accuracy    <          3.0E-12 Ry

     iteration # 26     ecut=    70.00 Ry     beta= 0.70
     Davidson diagonalization with overlap
     ethr =  1.00E-13,  avg # of iterations =  1.0

     total cpu time spent up to now is      452.0 secs

     total energy              =    -925.99706099 Ry
     Harris-Foulkes estimate   =    -925.99706099 Ry
     estimated scf accuracy    <          1.5E-12 Ry

     iteration # 27     ecut=    70.00 Ry     beta= 0.70
     Davidson diagonalization with overlap
     ethr =  1.00E-13,  avg # of iterations =  1.0

     total cpu time spent up to now is      452.5 secs

     End of self-consistent calculation

          k = 0.0000 0.0000 0.0000 ( 12649 PWs)   bands (ev):

   -60.6429 -60.6410 -60.6335 -60.6317 -34.6216 -34.6192 -34.6118 -34.6071
   -34.5451 -34.4966 -34.4773 -34.4473 -34.4451 -34.4305 -34.4172 -34.4149
   -13.9103 -13.7922 -12.9112 -12.7741 -12.6945 -12.6739 -12.3160 -12.3155
   -12.1849 -12.1707  -0.7362  -0.7246  -0.6857  -0.5640  -0.4546  -0.0227
     0.6607   0.7079   0.9255   0.9698   1.1204   1.1585   1.3515   1.3590
     1.3680   1.4913   1.6779   1.6816   1.7847   1.8648   1.9464   2.0172
     2.1063   2.4423   2.5331   2.5632   2.6465   2.8188   2.8561   2.9502

          k = 0.0000 0.2621 0.0000 ( 12583 PWs)   bands (ev):

   -60.6427 -60.6408 -60.6334 -60.6314 -34.6229 -34.6204 -34.6140 -34.6093
   -34.5449 -34.4963 -34.4773 -34.4472 -34.4450 -34.4305 -34.4172 -34.4149
   -13.8502 -13.7425 -12.8488 -12.7479 -12.6924 -12.6540 -12.3344 -12.3064
   -12.1783 -12.1482  -0.7746  -0.7623  -0.7163  -0.6038  -0.5696  -0.2758
    -0.0764   0.1201   0.1413   0.3042   0.7410   0.8970   0.9538   1.3295
     1.4523   1.6569   1.8126   1.8402   1.9981   2.0735   2.2054   2.3004
     2.5551   2.5583   2.6006   2.7304   2.7675   3.0015   3.0742   3.1762

          k = 0.3347 0.0000 0.0000 ( 12652 PWs)   bands (ev):

   -60.6391 -60.6371 -60.6342 -60.6324 -34.6159 -34.6138 -34.6099 -34.6064
   -34.5420 -34.5183 -34.5045 -34.4964 -34.4571 -34.4512 -34.4375 -34.4289
   -13.3739 -13.2400 -12.8121 -12.6514 -12.6472 -12.6298 -12.2653 -12.2582
   -12.2340 -12.1974  -1.2179  -1.1453  -0.4689  -0.4149  -0.3603  -0.0019
     0.0934   0.4818   0.5059   0.8014   0.8146   0.8530   1.1825   1.2976
     1.3423   1.4324   1.4496   1.5545   1.6333   1.7215   1.7609   1.8551
     1.9090   2.2951   2.5666   2.6476   2.7624   2.9026   3.1133   3.1675

          k = 0.3347 0.2621 0.0000 ( 12631 PWs)   bands (ev):

   -60.6390 -60.6371 -60.6342 -60.6324 -34.6173 -34.6152 -34.6118 -34.6083
   -34.5418 -34.5182 -34.5043 -34.4962 -34.4571 -34.4512 -34.4375 -34.4290
   -13.3212 -13.2029 -12.7709 -12.6483 -12.6322 -12.6121 -12.2658 -12.2419
   -12.1888 -12.1658  -1.2168  -1.1418  -0.5155  -0.4841  -0.4440  -0.1466
    -0.0765   0.0415   0.1227   0.2922   0.3548   0.5663   0.8635   0.9313
     1.0260   1.0707   1.1784   1.2649   1.3733   1.8390   2.0633   2.2436
     2.4800   2.5117   2.8702   3.0738   3.1025   3.2294   3.3010   3.3043

     highest occupied level (ev):     3.3043

!    total energy              =    -925.99706099 Ry
     Harris-Foulkes estimate   =    -925.99706099 Ry
     estimated scf accuracy    <          8.5E-13 Ry

     The total energy is the sum of the following terms:

     one-electron contribution =    -603.75623226 Ry
     hartree contribution      =     340.21791633 Ry
     xc contribution           =    -178.20953213 Ry
     ewald contribution        =    -484.24921292 Ry

     convergence has been achieved in  27 iterations

     Forces acting on atoms (cartesian axes, Ry/au):

     atom    1 type  1   force =     0.00000000   -0.00020081   -0.00006454
     atom    2 type  1   force =     0.00000000    0.00020081    0.00006454
     atom    3 type  1   force =     0.00000000    0.00020081   -0.00006454
     atom    4 type  1   force =     0.00000000   -0.00020081    0.00006454
     atom    5 type  2   force =     0.00000000    0.00001239   -0.00018064
     atom    6 type  2   force =     0.00000000   -0.00001239    0.00018064
     atom    7 type  2   force =     0.00000000   -0.00001239   -0.00018064
     atom    8 type  2   force =     0.00000000    0.00001239    0.00018064
     atom    9 type  2   force =    -0.00000000   -0.00048577   -0.00014133
     atom   10 type  2   force =    -0.00000000    0.00048577    0.00014133
     atom   11 type  2   force =     0.00000000    0.00048577   -0.00014133
     atom   12 type  2   force =     0.00000000    0.00023490    0.00000000
     atom   13 type  2   force =    -0.00000000   -0.00023490    0.00000000
     atom   14 type  2   force =     0.00000000   -0.00048577    0.00014133

     Total force =     0.001201     Total SCF correction =     0.000003


     Computing stress (Cartesian axis) and pressure

          total   stress  (Ry/bohr**3)                   (kbar)     P=   -6.03
  -0.00003128   0.00000000   0.00000000         -4.60      0.00      0.00
   0.00000000  -0.00006574   0.00000000          0.00     -9.67      0.00
   0.00000000   0.00000000  -0.00002598          0.00      0.00     -3.82


     Writing output data file v2o5.save/

     init_run     :      1.27s CPU      1.28s WALL (       2 calls)
     electrons    :    419.01s CPU    425.61s WALL (      14 calls)
     update_pot   :      6.94s CPU      6.96s WALL (      12 calls)
     forces       :      6.89s CPU      6.98s WALL (      14 calls)
     stress       :     12.04s CPU     12.07s WALL (      14 calls)

     Called by init_run:
     wfcinit      :      0.55s CPU      0.55s WALL (       2 calls)
     potinit      :      0.26s CPU      0.27s WALL (       2 calls)
     hinit0       :      0.42s CPU      0.42s WALL (       2 calls)

     Called by electrons:
     c_bands      :    378.81s CPU    384.67s WALL (     526 calls)
     sum_band     :     18.81s CPU     19.19s WALL (     526 calls)
     v_of_rho     :     20.23s CPU     20.38s WALL (     538 calls)
     mix_rho      :      1.38s CPU      1.39s WALL (     526 calls)

     Called by c_bands:
     init_us_2    :      4.02s CPU      4.10s WALL (    4328 calls)
     cegterg      :    366.76s CPU    372.34s WALL (    2104 calls)

     Called by sum_band:

     Called by *egterg:
     h_psi        :    187.55s CPU    190.59s WALL (    8664 calls)
     g_psi        :      0.59s CPU      0.59s WALL (    6552 calls)
     cdiaghg      :     73.13s CPU     74.95s WALL (    8600 calls)

     Called by h_psi:
     h_psi:pot    :    186.64s CPU    189.67s WALL (    8664 calls)
     h_psi:calbec :     59.25s CPU     60.79s WALL (    8664 calls)
     vloc_psi     :     83.40s CPU     84.81s WALL (    8664 calls)
     add_vuspsi   :     43.93s CPU     44.03s WALL (    8664 calls)

     General routines
     calbec       :     62.25s CPU     63.88s WALL (    8944 calls)
     fft          :     10.01s CPU     10.09s WALL (   34646 calls)
     ffts         :      0.13s CPU      0.13s WALL (     526 calls)
     fftw         :     89.88s CPU     91.44s WALL (  739354 calls)

     Parallel routines
     fft_scatt_xy :      7.38s CPU      7.50s WALL (  774526 calls)
     fft_scatt_yz :     55.48s CPU     56.46s WALL (  774526 calls)

     PWSCF        :   7m26.84s CPU   7m33.85s WALL


   This run was terminated on:  22:16:48  18May2024            

=------------------------------------------------------------------------------=
   JOB DONE.
=------------------------------------------------------------------------------=
