
     Program PWSCF v.6.4.1 starts on 18May2024 at 21: 0:50 

     This program is part of the open-source Quantum ESPRESSO suite
     for quantum simulation of materials; please cite
         "P. Giannozzi et al., J. Phys.:Condens. Matter 21 395502 (2009);
         "P. Giannozzi et al., J. Phys.:Condens. Matter 29 465901 (2017);
          URL http://www.quantum-espresso.org", 
     in publications or presentations arising from this work. More details at
     http://www.quantum-espresso.org/quote

     Parallel version (MPI), running on    32 processors

     MPI processes distributed on     1 nodes
     R & G space division:  proc/nbgrp/npool/nimage =      32
     Reading input from v2o5.vc-rlx.in

     Current dimensions of program PWSCF are:
     Max number of different atomic species (ntypx) = 10
     Max number of k-points (npk) =  40000
     Max angular momentum in pseudopotentials (lmaxx) =  3

     -------------------------------------------------
     Parameters for Dispersion (Grimme-D2) Correction:
     -------------------------------------------------
       atom      VdW radius       C_6     

        V          2.952        374.666
        O          2.536         24.284

     Subspace diagonalization in iterative solution of the eigenvalue problem:
     one sub-group per band group will be used
     ELPA distributed-memory algorithm (size of sub-group:  4*  4 procs)


     Parallelization info
     --------------------
     sticks:   dense  smooth     PW     G-vecs:    dense   smooth      PW
     Min          34      34      9                 2570     2570     369
     Max          35      35     10                 2585     2585     382
     Sum        1103    1103    301                82389    82389   11927



     bravais-lattice index     =            8
     lattice parameter (alat)  =       6.6381  a.u.
     unit-cell volume          =    1163.7446 (a.u.)^3
     number of atoms/cell      =           14
     number of atomic types    =            2
     number of electrons       =       112.00
     number of Kohn-Sham states=           56
     kinetic-energy cutoff     =      65.0000  Ry
     charge density cutoff     =     260.0000  Ry
     convergence threshold     =      1.0E-10
     mixing beta               =       0.7000
     number of iterations used =            8  plain     mixing
     Exchange-correlation      = PBE ( 1  4  3  4 0 0)
     nstep                     =          500


     celldm(1)=   6.638104  celldm(2)=   1.216160  celldm(3)=   3.271409
     celldm(4)=   0.000000  celldm(5)=   0.000000  celldm(6)=   0.000000

     crystal axes: (cart. coord. in units of alat)
               a(1) = (   1.000000   0.000000   0.000000 )  
               a(2) = (   0.000000   1.216160   0.000000 )  
               a(3) = (   0.000000   0.000000   3.271409 )  

     reciprocal axes: (cart. coord. in units 2 pi/alat)
               b(1) = (  1.000000  0.000000  0.000000 )  
               b(2) = (  0.000000  0.822260  0.000000 )  
               b(3) = (  0.000000  0.000000  0.305679 )  


     PseudoPot. # 1 for V  read from file:
     /home/mpicuntureo/pseudos/v.nc.upf
     MD5 check sum: 40fb93c06b4f9d8c28c5ccd071294a04
     Pseudo is Norm-conserving + core correction, Zval = 13.0
     Generated using ONCVPSP code by D. R. Hamann
     Using radial grid of 1536 points,  6 beta functions with: 
                l(1) =   0
                l(2) =   0
                l(3) =   1
                l(4) =   1
                l(5) =   2
                l(6) =   2

     PseudoPot. # 2 for O  read from file:
     /home/mpicuntureo/pseudos/o.nc.upf
     MD5 check sum: 3e3f909f7470e8921608ab6b1f57bbae
     Pseudo is Norm-conserving + core correction, Zval =  6.0
     Generated using ONCVPSP code by D. R. Hamann
     Using radial grid of  936 points,  5 beta functions with: 
                l(1) =   0
                l(2) =   0
                l(3) =   1
                l(4) =   1
                l(5) =   2

     atomic species   valence    mass     pseudopotential
        V             13.00    50.94150     V ( 1.00)
        O              6.00    15.99940     O ( 1.00)

      8 Sym. Ops., with inversion, found ( 4 have fractional translation)



   Cartesian axes

     site n.     atom                  positions (alat units)
         1           V   tau(   1) = (   0.0000000   0.4656549   2.1201292  )
         2           V   tau(   2) = (   0.5000000   0.7505050   2.7869838  )
         3           V   tau(   3) = (   0.5000000   0.7505050   0.4844249  )
         4           V   tau(   4) = (   0.0000000   0.4656549   1.1512794  )
         5           O   tau(   5) = (   0.5000000   0.5988063   2.2287802  )
         6           O   tau(   6) = (   0.0000000   0.6173535   2.6783327  )
         7           O   tau(   7) = (   0.0000000   0.6173535   0.5930759  )
         8           O   tau(   8) = (   0.5000000   0.5988063   1.0426284  )
         9           O   tau(   9) = (   0.0000000   0.0351031   1.1586289  )
        10           O   tau(  10) = (   0.5000000   1.1810567   0.4770754  )
        11           O   tau(  11) = (   0.5000000   1.1810567   2.7943332  )
        12           O   tau(  12) = (   0.5000000   0.6192000   0.0000000  )
        13           O   tau(  13) = (   0.0000000   0.5969598   1.6357043  )
        14           O   tau(  14) = (   0.0000000   0.0351031   2.1127798  )

     number of k points=     4
                       cart. coord. in units 2pi/alat
        k(    1) = (   0.0000000   0.0000000   0.0000000), wk =   0.2222222
        k(    2) = (   0.0000000   0.2740868   0.0000000), wk =   0.4444444
        k(    3) = (   0.3333333   0.0000000   0.0000000), wk =   0.4444444
        k(    4) = (   0.3333333   0.2740868   0.0000000), wk =   0.8888889

     Dense  grid:    82389 G-vectors     FFT dimensions: (  36,  45, 120)

     Estimated max dynamical RAM per process >      11.94 MB

     Estimated total dynamical RAM >     381.94 MB

     Check: negative core charge=   -0.000018

     Initial potential from superposition of free atoms

     starting charge  111.99579, renormalised to  112.00000
     Starting wfcs are   80 randomized atomic wfcs

     total cpu time spent up to now is        0.8 secs

     Self-consistent Calculation

     iteration #  1     ecut=    65.00 Ry     beta= 0.70
     Davidson diagonalization with overlap
     ethr =  1.00E-02,  avg # of iterations =  2.0

     total cpu time spent up to now is        1.3 secs

     total energy              =    -917.91958384 Ry
     Harris-Foulkes estimate   =    -923.47669645 Ry
     estimated scf accuracy    <       7.05159702 Ry

     iteration #  2     ecut=    65.00 Ry     beta= 0.70
     Davidson diagonalization with overlap
     ethr =  6.30E-03,  avg # of iterations =  6.0

     total cpu time spent up to now is        2.1 secs

     total energy              =    -909.17361712 Ry
     Harris-Foulkes estimate   =    -934.86129372 Ry
     estimated scf accuracy    <     111.00460136 Ry

     iteration #  3     ecut=    65.00 Ry     beta= 0.70
     Davidson diagonalization with overlap
     ethr =  6.30E-03,  avg # of iterations =  5.8

     total cpu time spent up to now is        2.9 secs

     total energy              =    -921.87977558 Ry
     Harris-Foulkes estimate   =    -922.51538819 Ry
     estimated scf accuracy    <       2.19606484 Ry

     iteration #  4     ecut=    65.00 Ry     beta= 0.70
     Davidson diagonalization with overlap
     ethr =  1.96E-03,  avg # of iterations =  3.8

     total cpu time spent up to now is        3.3 secs

     total energy              =    -921.96222704 Ry
     Harris-Foulkes estimate   =    -922.09420140 Ry
     estimated scf accuracy    <       0.84035338 Ry

     iteration #  5     ecut=    65.00 Ry     beta= 0.70
     Davidson diagonalization with overlap
     ethr =  7.50E-04,  avg # of iterations =  3.8

     total cpu time spent up to now is        3.7 secs

     total energy              =    -921.93232286 Ry
     Harris-Foulkes estimate   =    -922.02557338 Ry
     estimated scf accuracy    <       0.36762606 Ry

     iteration #  6     ecut=    65.00 Ry     beta= 0.70
     Davidson diagonalization with overlap
     ethr =  3.28E-04,  avg # of iterations =  4.0

     total cpu time spent up to now is        4.2 secs

     total energy              =    -922.02873858 Ry
     Harris-Foulkes estimate   =    -922.03410730 Ry
     estimated scf accuracy    <       0.04803222 Ry

     iteration #  7     ecut=    65.00 Ry     beta= 0.70
     Davidson diagonalization with overlap
     ethr =  4.29E-05,  avg # of iterations =  4.2

     total cpu time spent up to now is        4.7 secs

     total energy              =    -922.02906113 Ry
     Harris-Foulkes estimate   =    -922.03673859 Ry
     estimated scf accuracy    <       0.05557580 Ry

     iteration #  8     ecut=    65.00 Ry     beta= 0.70
     Davidson diagonalization with overlap
     ethr =  4.29E-05,  avg # of iterations =  1.0

     total cpu time spent up to now is        4.9 secs

     total energy              =    -922.02160624 Ry
     Harris-Foulkes estimate   =    -922.03016099 Ry
     estimated scf accuracy    <       0.03810241 Ry

     iteration #  9     ecut=    65.00 Ry     beta= 0.70
     Davidson diagonalization with overlap
     ethr =  3.40E-05,  avg # of iterations =  3.5

     total cpu time spent up to now is        5.4 secs

     total energy              =    -922.02710887 Ry
     Harris-Foulkes estimate   =    -922.02763776 Ry
     estimated scf accuracy    <       0.00218758 Ry

     iteration # 10     ecut=    65.00 Ry     beta= 0.70
     Davidson diagonalization with overlap
     ethr =  1.95E-06,  avg # of iterations =  4.8

     total cpu time spent up to now is        5.9 secs

     total energy              =    -922.02754834 Ry
     Harris-Foulkes estimate   =    -922.02774211 Ry
     estimated scf accuracy    <       0.00060918 Ry

     iteration # 11     ecut=    65.00 Ry     beta= 0.70
     Davidson diagonalization with overlap
     ethr =  5.44E-07,  avg # of iterations =  4.0

     total cpu time spent up to now is        6.4 secs

     total energy              =    -922.02765824 Ry
     Harris-Foulkes estimate   =    -922.02767302 Ry
     estimated scf accuracy    <       0.00004634 Ry

     iteration # 12     ecut=    65.00 Ry     beta= 0.70
     Davidson diagonalization with overlap
     ethr =  4.14E-08,  avg # of iterations =  5.0

     total cpu time spent up to now is        6.9 secs

     total energy              =    -922.02767203 Ry
     Harris-Foulkes estimate   =    -922.02767250 Ry
     estimated scf accuracy    <       0.00000399 Ry

     iteration # 13     ecut=    65.00 Ry     beta= 0.70
     Davidson diagonalization with overlap
     ethr =  3.56E-09,  avg # of iterations =  4.0

     total cpu time spent up to now is        7.4 secs

     total energy              =    -922.02767197 Ry
     Harris-Foulkes estimate   =    -922.02767267 Ry
     estimated scf accuracy    <       0.00000271 Ry

     iteration # 14     ecut=    65.00 Ry     beta= 0.70
     Davidson diagonalization with overlap
     ethr =  2.42E-09,  avg # of iterations =  3.8

     total cpu time spent up to now is        7.8 secs

     total energy              =    -922.02767212 Ry
     Harris-Foulkes estimate   =    -922.02767223 Ry
     estimated scf accuracy    <       0.00000045 Ry

     iteration # 15     ecut=    65.00 Ry     beta= 0.70
     Davidson diagonalization with overlap
     ethr =  4.01E-10,  avg # of iterations =  4.5

     total cpu time spent up to now is        8.4 secs

     total energy              =    -922.02767228 Ry
     Harris-Foulkes estimate   =    -922.02767233 Ry
     estimated scf accuracy    <       0.00000025 Ry

     iteration # 16     ecut=    65.00 Ry     beta= 0.70
     Davidson diagonalization with overlap
     ethr =  2.27E-10,  avg # of iterations =  1.8

     total cpu time spent up to now is        8.7 secs

     total energy              =    -922.02767226 Ry
     Harris-Foulkes estimate   =    -922.02767229 Ry
     estimated scf accuracy    <       0.00000015 Ry

     iteration # 17     ecut=    65.00 Ry     beta= 0.70
     Davidson diagonalization with overlap
     ethr =  1.30E-10,  avg # of iterations =  4.0

     total cpu time spent up to now is        9.2 secs

     total energy              =    -922.02767228 Ry
     Harris-Foulkes estimate   =    -922.02767229 Ry
     estimated scf accuracy    <       0.00000002 Ry

     iteration # 18     ecut=    65.00 Ry     beta= 0.70
     Davidson diagonalization with overlap
     ethr =  1.91E-11,  avg # of iterations =  4.2

     total cpu time spent up to now is        9.6 secs

     total energy              =    -922.02767229 Ry
     Harris-Foulkes estimate   =    -922.02767229 Ry
     estimated scf accuracy    <          2.7E-09 Ry

     iteration # 19     ecut=    65.00 Ry     beta= 0.70
     Davidson diagonalization with overlap
     ethr =  2.42E-12,  avg # of iterations =  5.0

     total cpu time spent up to now is       10.3 secs

     total energy              =    -922.02767229 Ry
     Harris-Foulkes estimate   =    -922.02767229 Ry
     estimated scf accuracy    <          1.2E-09 Ry

     iteration # 20     ecut=    65.00 Ry     beta= 0.70
     Davidson diagonalization with overlap
     ethr =  1.05E-12,  avg # of iterations =  3.8

     total cpu time spent up to now is       10.8 secs

     End of self-consistent calculation

          k = 0.0000 0.0000 0.0000 ( 10339 PWs)   bands (ev):

   -59.1309 -59.1281 -59.1174 -59.1160 -33.4230 -33.4202 -33.4109 -33.4068
   -33.0640 -33.0053 -32.9747 -32.9397 -32.9369 -32.9166 -32.9003 -32.8975
   -12.8892 -12.7533 -11.7731 -11.6399 -11.5097 -11.4646 -11.2990 -11.2440
   -11.1438 -11.0784   0.2866   0.2962   0.3046   0.4395   0.5963   1.0370
     1.3915   1.6774   1.8525   2.0283   2.0798   2.1098   2.3182   2.3741
     2.4091   2.4127   2.4184   2.4697   2.6004   2.9098   2.9594   2.9813
     3.1893   3.5374   3.5549   3.6961   3.8909   3.9358   4.0893   4.1473

          k = 0.0000 0.2741 0.0000 ( 10311 PWs)   bands (ev):

   -59.1300 -59.1285 -59.1179 -59.1152 -33.4265 -33.4236 -33.4167 -33.4125
   -33.0634 -33.0047 -32.9747 -32.9393 -32.9365 -32.9166 -32.9002 -32.8974
   -12.7725 -12.6517 -11.6528 -11.5820 -11.5009 -11.4172 -11.2749 -11.2722
   -11.0823 -11.0715   0.1259   0.2027   0.2201   0.3443   0.3464   0.3776
     0.8400   0.8688   0.9172   1.0939   1.5256   1.6671   1.7195   2.1449
     2.1568   2.5639   2.7931   2.9526   3.0677   3.0678   3.1940   3.3006
     3.6421   3.6516   3.8580   3.9860   3.9934   4.2590   4.3151   4.4375

          k = 0.3333 0.0000 0.0000 ( 10287 PWs)   bands (ev):

   -59.1252 -59.1234 -59.1181 -59.1163 -33.4165 -33.4135 -33.4099 -33.4063
   -33.0593 -33.0280 -33.0157 -33.0029 -32.9504 -32.9438 -32.9258 -32.9144
   -12.2862 -12.1247 -11.6546 -11.4307 -11.4285 -11.3990 -11.2412 -11.2375
   -11.1821 -11.1077  -0.2780  -0.1963   0.5577   0.5869   0.7100   1.0027
     1.0685   1.4453   1.4576   1.5587   1.5828   1.6049   2.0781   2.1154
     2.1158   2.3578   2.5180   2.5843   2.6352   2.7230   2.7671   2.9623
     3.0347   3.3346   3.6834   3.7267   3.8679   3.9805   4.2990   4.4285

          k = 0.3333 0.2741 0.0000 ( 10286 PWs)   bands (ev):

   -59.1248 -59.1228 -59.1187 -59.1166 -33.4204 -33.4174 -33.4151 -33.4113
   -33.0586 -33.0276 -33.0151 -33.0024 -32.9504 -32.9437 -32.9258 -32.9145
   -12.1761 -12.0382 -11.5627 -11.4225 -11.3964 -11.3587 -11.1947 -11.1928
   -11.1058 -11.0999  -0.2768  -0.1932   0.3382   0.3910   0.4596   0.4707
     0.8626   0.9068   0.9349   0.9934   1.1015   1.5413   1.6574   1.8161
     1.8447   1.9342   2.0709   2.1182   2.2479   2.5806   3.0934   3.1626
     3.7007   3.7133   4.0671   4.2832   4.3573   4.4785   4.5412   4.5840

     highest occupied level (ev):     4.5840

!    total energy              =    -922.02767229 Ry
     Harris-Foulkes estimate   =    -922.02767229 Ry
     estimated scf accuracy    <          9.7E-11 Ry

     The total energy is the sum of the following terms:

     one-electron contribution =    -572.76857656 Ry
     hartree contribution      =     328.75807751 Ry
     xc contribution           =    -174.69201149 Ry
     ewald contribution        =    -503.18732926 Ry
     Dispersion Correction     =      -0.13783248 Ry

     convergence has been achieved in  20 iterations

     Forces acting on atoms (cartesian axes, Ry/au):

     atom    1 type  1   force =     0.00000000    0.14308861    0.00746201
     atom    2 type  1   force =     0.00000000   -0.14308861   -0.00746201
     atom    3 type  1   force =     0.00000000   -0.14308861    0.00746201
     atom    4 type  1   force =     0.00000000    0.14308861   -0.00746201
     atom    5 type  2   force =     0.00000000    0.00593018   -0.00365225
     atom    6 type  2   force =     0.00000000   -0.00593018    0.00365225
     atom    7 type  2   force =     0.00000000   -0.00593018   -0.00365225
     atom    8 type  2   force =     0.00000000    0.00593018    0.00365225
     atom    9 type  2   force =     0.00000000   -0.16051255    0.00155250
     atom   10 type  2   force =     0.00000000    0.16051255   -0.00155250
     atom   11 type  2   force =     0.00000000    0.16051255    0.00155250
     atom   12 type  2   force =     0.00000000   -0.01311188    0.00000000
     atom   13 type  2   force =     0.00000000    0.01311188    0.00000000
     atom   14 type  2   force =     0.00000000   -0.16051255   -0.00155250

     Total force =     0.430958     Total SCF correction =     0.000043


     Computing stress (Cartesian axis) and pressure

          total   stress  (Ry/bohr**3)                   (kbar)     P=   69.85
   0.00000917   0.00000000   0.00000000          1.35      0.00      0.00
   0.00000000   0.00138038   0.00000000          0.00    203.06      0.00
   0.00000000   0.00000000   0.00003490          0.00      0.00      5.13


     BFGS Geometry Optimization

     number of scf cycles    =   1
     number of bfgs steps    =   0

     enthalpy new            =    -922.0276722868 Ry

     new trust radius        =       0.2354493674 bohr
     new conv_thr            =            1.0E-10 Ry

     new unit-cell volume =   1205.23153 a.u.^3 (   178.59688 Ang^3 )
     density =      3.38213 g/cm^3

CELL_PARAMETERS (alat=  6.63810422)
   1.000229356   0.000000000   0.000000000
   0.000000000   1.258128949   0.000000000
   0.000000000   0.000000000   3.274262780

ATOMIC_POSITIONS (crystal)
V        0.000000000   0.400613876   0.648421998
V        0.500000002   0.599386128   0.851578008
V        0.500000002   0.599386128   0.148421997
V        0.000000000   0.400613876   0.351578005
O        0.500000002   0.493109255   0.681122506
O        0.000000000   0.506890750   0.818877500
O        0.000000000   0.506890750   0.181122505
O        0.500000002   0.493109255   0.318877498
O        0.000000000   0.008981271   0.354239687
O        0.500000002   0.991018734   0.145760317
O        0.500000002   0.991018734   0.854239688
O        0.500000002   0.507519455   0.000000000
O        0.000000000   0.492480550   0.500000002
O        0.000000000   0.008981271   0.645760319



     Writing output data file v2o5.save/
     NEW-OLD atomic charge density approx. for the potential

     Check: negative core charge=   -0.000023
     extrapolated charge  115.85516, renormalised to  112.00000

     total cpu time spent up to now is       11.8 secs

     Self-consistent Calculation

     iteration #  1     ecut=    65.00 Ry     beta= 0.70
     Davidson diagonalization with overlap
     ethr =  1.00E-06,  avg # of iterations = 12.0

     total cpu time spent up to now is       13.6 secs

     total energy              =    -918.87940422 Ry
     Harris-Foulkes estimate   =    -906.44483356 Ry
     estimated scf accuracy    <       3.05240011 Ry

     iteration #  2     ecut=    65.00 Ry     beta= 0.70
     Davidson diagonalization with overlap
     ethr =  2.73E-03,  avg # of iterations =  9.8

     total cpu time spent up to now is       14.7 secs

     total energy              =    -914.59103163 Ry
     Harris-Foulkes estimate   =    -936.24846914 Ry
     estimated scf accuracy    <     139.84610095 Ry

     iteration #  3     ecut=    65.00 Ry     beta= 0.70
     Davidson diagonalization with overlap
     ethr =  2.73E-03,  avg # of iterations =  6.0

     total cpu time spent up to now is       15.5 secs

     total energy              =    -921.71383769 Ry
     Harris-Foulkes estimate   =    -922.05995992 Ry
     estimated scf accuracy    <       1.71055141 Ry

     iteration #  4     ecut=    65.00 Ry     beta= 0.70
     Davidson diagonalization with overlap
     ethr =  1.53E-03,  avg # of iterations =  4.5

     total cpu time spent up to now is       15.9 secs

     total energy              =    -921.88663886 Ry
     Harris-Foulkes estimate   =    -921.96694441 Ry
     estimated scf accuracy    <       0.57708919 Ry

     iteration #  5     ecut=    65.00 Ry     beta= 0.70
     Davidson diagonalization with overlap
     ethr =  5.15E-04,  avg # of iterations =  3.8

     total cpu time spent up to now is       16.3 secs

     total energy              =    -921.89474398 Ry
     Harris-Foulkes estimate   =    -921.92100502 Ry
     estimated scf accuracy    <       0.30177544 Ry

     iteration #  6     ecut=    65.00 Ry     beta= 0.70
     Davidson diagonalization with overlap
     ethr =  2.69E-04,  avg # of iterations =  4.0

     total cpu time spent up to now is       16.7 secs

     total energy              =    -921.91039389 Ry
     Harris-Foulkes estimate   =    -921.92070341 Ry
     estimated scf accuracy    <       0.07746095 Ry

     iteration #  7     ecut=    65.00 Ry     beta= 0.70
     Davidson diagonalization with overlap
     ethr =  6.92E-05,  avg # of iterations =  4.0

     total cpu time spent up to now is       17.2 secs

     total energy              =    -921.92951336 Ry
     Harris-Foulkes estimate   =    -921.93182420 Ry
     estimated scf accuracy    <       0.00956188 Ry

     iteration #  8     ecut=    65.00 Ry     beta= 0.70
     Davidson diagonalization with overlap
     ethr =  8.54E-06,  avg # of iterations =  5.0

     total cpu time spent up to now is       17.8 secs

     total energy              =    -921.92970953 Ry
     Harris-Foulkes estimate   =    -921.93250703 Ry
     estimated scf accuracy    <       0.01715553 Ry

     iteration #  9     ecut=    65.00 Ry     beta= 0.70
     Davidson diagonalization with overlap
     ethr =  8.54E-06,  avg # of iterations =  2.5

     total cpu time spent up to now is       18.2 secs

     total energy              =    -921.92763867 Ry
     Harris-Foulkes estimate   =    -921.93011343 Ry
     estimated scf accuracy    <       0.01095294 Ry

     iteration # 10     ecut=    65.00 Ry     beta= 0.70
     Davidson diagonalization with overlap
     ethr =  8.54E-06,  avg # of iterations =  4.0

     total cpu time spent up to now is       18.7 secs

     total energy              =    -921.92986006 Ry
     Harris-Foulkes estimate   =    -921.93023324 Ry
     estimated scf accuracy    <       0.00244511 Ry

     iteration # 11     ecut=    65.00 Ry     beta= 0.70
     Davidson diagonalization with overlap
     ethr =  2.18E-06,  avg # of iterations =  1.5

     total cpu time spent up to now is       19.0 secs

     total energy              =    -921.92960967 Ry
     Harris-Foulkes estimate   =    -921.92991499 Ry
     estimated scf accuracy    <       0.00155084 Ry

     iteration # 12     ecut=    65.00 Ry     beta= 0.70
     Davidson diagonalization with overlap
     ethr =  1.38E-06,  avg # of iterations =  4.0

     total cpu time spent up to now is       19.6 secs

     total energy              =    -921.92992274 Ry
     Harris-Foulkes estimate   =    -921.92994484 Ry
     estimated scf accuracy    <       0.00025251 Ry

     iteration # 13     ecut=    65.00 Ry     beta= 0.70
     Davidson diagonalization with overlap
     ethr =  2.25E-07,  avg # of iterations =  2.0

     total cpu time spent up to now is       19.9 secs

     total energy              =    -921.92992197 Ry
     Harris-Foulkes estimate   =    -921.92993213 Ry
     estimated scf accuracy    <       0.00019011 Ry

     iteration # 14     ecut=    65.00 Ry     beta= 0.70
     Davidson diagonalization with overlap
     ethr =  1.70E-07,  avg # of iterations =  1.0

     total cpu time spent up to now is       20.2 secs

     total energy              =    -921.92991002 Ry
     Harris-Foulkes estimate   =    -921.92992425 Ry
     estimated scf accuracy    <       0.00015297 Ry

     iteration # 15     ecut=    65.00 Ry     beta= 0.70
     Davidson diagonalization with overlap
     ethr =  1.37E-07,  avg # of iterations =  4.0

     total cpu time spent up to now is       20.5 secs

     total energy              =    -921.92991547 Ry
     Harris-Foulkes estimate   =    -921.92991755 Ry
     estimated scf accuracy    <       0.00006228 Ry

     iteration # 16     ecut=    65.00 Ry     beta= 0.70
     Davidson diagonalization with overlap
     ethr =  5.56E-08,  avg # of iterations =  4.2

     total cpu time spent up to now is       21.0 secs

     total energy              =    -921.92992303 Ry
     Harris-Foulkes estimate   =    -921.92992477 Ry
     estimated scf accuracy    <       0.00002279 Ry

     iteration # 17     ecut=    65.00 Ry     beta= 0.70
     Davidson diagonalization with overlap
     ethr =  2.04E-08,  avg # of iterations =  4.0

     total cpu time spent up to now is       21.4 secs

     total energy              =    -921.92992487 Ry
     Harris-Foulkes estimate   =    -921.92992587 Ry
     estimated scf accuracy    <       0.00001517 Ry

     iteration # 18     ecut=    65.00 Ry     beta= 0.70
     Davidson diagonalization with overlap
     ethr =  1.35E-08,  avg # of iterations =  1.0

     total cpu time spent up to now is       21.7 secs

     total energy              =    -921.92992348 Ry
     Harris-Foulkes estimate   =    -921.92992509 Ry
     estimated scf accuracy    <       0.00001212 Ry

     iteration # 19     ecut=    65.00 Ry     beta= 0.70
     Davidson diagonalization with overlap
     ethr =  1.08E-08,  avg # of iterations =  3.8

     total cpu time spent up to now is       22.1 secs

     total energy              =    -921.92992368 Ry
     Harris-Foulkes estimate   =    -921.92992454 Ry
     estimated scf accuracy    <       0.00000519 Ry

     iteration # 20     ecut=    65.00 Ry     beta= 0.70
     Davidson diagonalization with overlap
     ethr =  4.63E-09,  avg # of iterations =  4.0

     total cpu time spent up to now is       22.5 secs

     total energy              =    -921.92992425 Ry
     Harris-Foulkes estimate   =    -921.92992421 Ry
     estimated scf accuracy    <       0.00000301 Ry

     iteration # 21     ecut=    65.00 Ry     beta= 0.70
     Davidson diagonalization with overlap
     ethr =  2.68E-09,  avg # of iterations =  4.0

     total cpu time spent up to now is       22.9 secs

     total energy              =    -921.92992478 Ry
     Harris-Foulkes estimate   =    -921.92992453 Ry
     estimated scf accuracy    <       0.00000498 Ry

     iteration # 22     ecut=    65.00 Ry     beta= 0.70
     Davidson diagonalization with overlap
     ethr =  2.68E-09,  avg # of iterations =  2.5

     total cpu time spent up to now is       23.2 secs

     total energy              =    -921.92992484 Ry
     Harris-Foulkes estimate   =    -921.92992484 Ry
     estimated scf accuracy    <       0.00000608 Ry

     iteration # 23     ecut=    65.00 Ry     beta= 0.70
     Davidson diagonalization with overlap
     ethr =  2.68E-09,  avg # of iterations =  1.8

     total cpu time spent up to now is       23.5 secs

     total energy              =    -921.92992442 Ry
     Harris-Foulkes estimate   =    -921.92992491 Ry
     estimated scf accuracy    <       0.00000675 Ry

     iteration # 24     ecut=    65.00 Ry     beta= 0.70
     Davidson diagonalization with overlap
     ethr =  2.68E-09,  avg # of iterations =  2.0

     total cpu time spent up to now is       23.8 secs

     total energy              =    -921.92992417 Ry
     Harris-Foulkes estimate   =    -921.92992451 Ry
     estimated scf accuracy    <       0.00000562 Ry

     iteration # 25     ecut=    65.00 Ry     beta= 0.70
     Davidson diagonalization with overlap
     ethr =  2.68E-09,  avg # of iterations =  2.2

     total cpu time spent up to now is       24.2 secs

     total energy              =    -921.92992264 Ry
     Harris-Foulkes estimate   =    -921.92992430 Ry
     estimated scf accuracy    <       0.00000474 Ry

     iteration # 26     ecut=    65.00 Ry     beta= 0.70
     Davidson diagonalization with overlap
     ethr =  2.68E-09,  avg # of iterations =  5.0

     total cpu time spent up to now is       24.8 secs

     total energy              =    -921.92992342 Ry
     Harris-Foulkes estimate   =    -921.92992439 Ry
     estimated scf accuracy    <       0.00000434 Ry

     iteration # 27     ecut=    65.00 Ry     beta= 0.70
     Davidson diagonalization with overlap
     ethr =  2.68E-09,  avg # of iterations =  4.0

     total cpu time spent up to now is       25.3 secs

     total energy              =    -921.92992382 Ry
     Harris-Foulkes estimate   =    -921.92992386 Ry
     estimated scf accuracy    <       0.00000052 Ry

     iteration # 28     ecut=    65.00 Ry     beta= 0.70
     Davidson diagonalization with overlap
     ethr =  4.60E-10,  avg # of iterations =  4.5

     total cpu time spent up to now is       25.9 secs

     total energy              =    -921.92992388 Ry
     Harris-Foulkes estimate   =    -921.92992404 Ry
     estimated scf accuracy    <       0.00000170 Ry

     iteration # 29     ecut=    65.00 Ry     beta= 0.70
     Davidson diagonalization with overlap
     ethr =  4.60E-10,  avg # of iterations =  1.2

     total cpu time spent up to now is       26.2 secs

     total energy              =    -921.92992374 Ry
     Harris-Foulkes estimate   =    -921.92992390 Ry
     estimated scf accuracy    <       0.00000121 Ry

     iteration # 30     ecut=    65.00 Ry     beta= 0.70
     Davidson diagonalization with overlap
     ethr =  4.60E-10,  avg # of iterations =  4.2

     total cpu time spent up to now is       26.6 secs

     total energy              =    -921.92992386 Ry
     Harris-Foulkes estimate   =    -921.92992386 Ry
     estimated scf accuracy    <          4.3E-09 Ry

     iteration # 31     ecut=    65.00 Ry     beta= 0.70
     Davidson diagonalization with overlap
     ethr =  3.84E-12,  avg # of iterations =  5.5

     total cpu time spent up to now is       27.5 secs

     total energy              =    -921.92992386 Ry
     Harris-Foulkes estimate   =    -921.92992386 Ry
     estimated scf accuracy    <       0.00000003 Ry

     iteration # 32     ecut=    65.00 Ry     beta= 0.70
     Davidson diagonalization with overlap
     ethr =  3.84E-12,  avg # of iterations =  5.0

     total cpu time spent up to now is       28.2 secs

     total energy              =    -921.92992386 Ry
     Harris-Foulkes estimate   =    -921.92992386 Ry
     estimated scf accuracy    <       0.00000003 Ry

     iteration # 33     ecut=    65.00 Ry     beta= 0.70
     Davidson diagonalization with overlap
     ethr =  3.84E-12,  avg # of iterations =  5.0

     total cpu time spent up to now is       28.8 secs

     total energy              =    -921.92992386 Ry
     Harris-Foulkes estimate   =    -921.92992386 Ry
     estimated scf accuracy    <          6.8E-10 Ry

     iteration # 34     ecut=    65.00 Ry     beta= 0.70
     Davidson diagonalization with overlap
     ethr =  6.07E-13,  avg # of iterations =  3.8

     total cpu time spent up to now is       29.2 secs

     total energy              =    -921.92992386 Ry
     Harris-Foulkes estimate   =    -921.92992386 Ry
     estimated scf accuracy    <          3.9E-10 Ry

     iteration # 35     ecut=    65.00 Ry     beta= 0.70
     Davidson diagonalization with overlap
     ethr =  3.53E-13,  avg # of iterations =  3.8

     total cpu time spent up to now is       29.7 secs

     total energy              =    -921.92992386 Ry
     Harris-Foulkes estimate   =    -921.92992386 Ry
     estimated scf accuracy    <          3.2E-10 Ry

     iteration # 36     ecut=    65.00 Ry     beta= 0.70
     Davidson diagonalization with overlap
     ethr =  2.87E-13,  avg # of iterations =  1.5

     total cpu time spent up to now is       30.0 secs

     total energy              =    -921.92992386 Ry
     Harris-Foulkes estimate   =    -921.92992386 Ry
     estimated scf accuracy    <          2.5E-10 Ry

     iteration # 37     ecut=    65.00 Ry     beta= 0.70
     Davidson diagonalization with overlap
     ethr =  2.23E-13,  avg # of iterations =  4.0

     total cpu time spent up to now is       30.4 secs

     End of self-consistent calculation

          k = 0.0000 0.0000 0.0000 ( 10339 PWs)   bands (ev):

   -59.9713 -59.9692 -59.9568 -59.9551 -34.0132 -33.9573 -33.9133 -33.8910
   -33.8882 -33.8552 -33.8447 -33.8419 -33.6877 -33.6836 -33.6779 -33.6752
   -13.7389 -13.6104 -12.5868 -12.5675 -12.4313 -12.2795 -11.1611 -11.1405
   -10.9470 -10.9355  -0.6736  -0.5465  -0.5192  -0.4398  -0.2101   0.4954
     0.9910   1.2060   1.5683   1.7145   1.9126   1.9272   2.0381   2.0911
     2.3386   2.5546   2.8313   2.9195   2.9579   3.0090   3.1254   3.1413
     3.2092   3.4289   3.4530   3.4563   3.9033   3.9409   3.9712   4.1058

          k = 0.0000 0.2649 0.0000 ( 10311 PWs)   bands (ev):

   -59.9712 -59.9692 -59.9562 -59.9540 -34.0130 -33.9572 -33.9135 -33.8908
   -33.8881 -33.8553 -33.8447 -33.8419 -33.6898 -33.6857 -33.6811 -33.6783
   -13.6903 -13.5693 -12.5652 -12.5539 -12.4126 -12.2698 -11.1327 -11.0917
   -10.8873 -10.8451  -0.6754  -0.5643  -0.5371  -0.4558  -0.2719   0.4294
     0.4704   0.6782   0.9484   1.1017   1.6875   1.7603   1.7943   2.0487
     2.0798   2.2643   2.4080   2.5106   2.6608   3.1395   3.1598   3.2482
     3.5483   3.5854   3.7248   3.7797   3.8219   4.0065   4.0976   4.4445

          k = 0.3333 0.0000 0.0000 ( 10287 PWs)   bands (ev):

   -59.9648 -59.9635 -59.9578 -59.9557 -34.0100 -33.9780 -33.9710 -33.9565
   -33.8913 -33.8869 -33.8663 -33.8520 -33.6820 -33.6789 -33.6779 -33.6753
   -13.1058 -12.9538 -12.4797 -12.3535 -12.2752 -12.2206 -11.0775 -11.0606
   -10.9802 -10.9734  -1.2235  -1.1421  -0.3666  -0.2577  -0.1193   0.2667
     0.3022   0.7782   0.9219   1.2643   1.4001   1.6674   1.8899   2.0034
     2.2235   2.4931   2.5260   2.8751   2.9155   2.9866   3.0281   3.0843
     3.1612   3.2797   3.4186   3.5825   3.8996   3.9311   4.0559   4.1112

          k = 0.3333 0.2649 0.0000 ( 10286 PWs)   bands (ev):

   -59.9656 -59.9633 -59.9572 -59.9558 -34.0098 -33.9778 -33.9708 -33.9563
   -33.8914 -33.8869 -33.8663 -33.8521 -33.6844 -33.6812 -33.6808 -33.6782
   -13.0671 -12.9254 -12.4661 -12.3496 -12.2573 -12.2122 -11.0268 -10.9878
   -10.9050 -10.8667  -1.2279  -1.1458  -0.3808  -0.2759  -0.1592   0.2141
     0.2384   0.4397   0.6703   0.9556   1.0027   1.1301   1.4171   1.6766
     1.7392   1.8778   2.0262   2.1631   2.4421   2.7084   2.8338   3.3251
     3.5003   3.7593   4.0005   4.1025   4.1124   4.1833   4.2568   4.4200

     highest occupied level (ev):     4.4445

!    total energy              =    -921.92992386 Ry
     Harris-Foulkes estimate   =    -921.92992386 Ry
     estimated scf accuracy    <          6.6E-11 Ry

     The total energy is the sum of the following terms:

     one-electron contribution =    -569.06104824 Ry
     hartree contribution      =     324.50472316 Ry
     xc contribution           =    -173.71192643 Ry
     ewald contribution        =    -503.53087021 Ry
     Dispersion Correction     =      -0.13080215 Ry

     convergence has been achieved in  37 iterations

     Forces acting on atoms (cartesian axes, Ry/au):

     atom    1 type  1   force =     0.00000000   -0.19302681   -0.01440188
     atom    2 type  1   force =     0.00000000    0.19302681    0.01440188
     atom    3 type  1   force =     0.00000000    0.19302681   -0.01440188
     atom    4 type  1   force =     0.00000000   -0.19302681    0.01440188
     atom    5 type  2   force =     0.00000000    0.00634497   -0.00175462
     atom    6 type  2   force =     0.00000000   -0.00634497    0.00175462
     atom    7 type  2   force =     0.00000000   -0.00634497   -0.00175462
     atom    8 type  2   force =     0.00000000    0.00634497    0.00175462
     atom    9 type  2   force =    -0.00000000    0.17062952   -0.00217070
     atom   10 type  2   force =    -0.00000000   -0.17062952    0.00217070
     atom   11 type  2   force =     0.00000000   -0.17062952   -0.00217070
     atom   12 type  2   force =    -0.00000000   -0.00812396    0.00000000
     atom   13 type  2   force =     0.00000000    0.00812396   -0.00000000
     atom   14 type  2   force =     0.00000000    0.17062952    0.00217070

     Total force =     0.516381     Total SCF correction =     0.000018


     Computing stress (Cartesian axis) and pressure

          total   stress  (Ry/bohr**3)                   (kbar)     P= -132.84
  -0.00004775   0.00000000   0.00000000         -7.02      0.00      0.00
   0.00000000  -0.00261549   0.00000000          0.00   -384.75      0.00
   0.00000000   0.00000000  -0.00004591          0.00      0.00     -6.75


     number of scf cycles    =   2
     number of bfgs steps    =   1

     enthalpy old            =    -922.0276722868 Ry
     enthalpy new            =    -921.9299238592 Ry

     CASE: enthalpy_new > enthalpy_old

     new trust radius        =       0.0824105166 bohr
     new conv_thr            =            1.0E-10 Ry

     new unit-cell volume =   1178.49567 a.u.^3 (   174.63504 Ang^3 )
     density =      3.45886 g/cm^3

CELL_PARAMETERS (alat=  6.63810422)
   1.000081606   0.000000000   0.000000000
   0.000000000   1.231092722   0.000000000
   0.000000000   0.000000000   3.272424150

ATOMIC_POSITIONS (crystal)
V        0.000000000   0.389195955   0.648200641
V        0.500000002   0.610804049   0.851799365
V        0.500000002   0.610804049   0.148200640
V        0.000000000   0.389195955   0.351799362
O        0.500000002   0.492636049   0.681230848
O        0.000000000   0.507363956   0.818769158
O        0.000000000   0.507363956   0.181230847
O        0.500000002   0.492636049   0.318769155
O        0.000000000   0.021789556   0.354193632
O        0.500000002   0.978210448   0.145806371
O        0.500000002   0.978210448   0.854193633
O        0.500000002   0.508565732   0.000000000
O        0.000000000   0.491434272   0.500000002
O        0.000000000   0.021789556   0.645806373



     Writing output data file v2o5.save/
     NEW-OLD atomic charge density approx. for the potential

     Check: negative core charge=   -0.000020
     extrapolated charge  109.45922, renormalised to  112.00000

     total cpu time spent up to now is       31.5 secs

     Self-consistent Calculation

     iteration #  1     ecut=    65.00 Ry     beta= 0.70
     Davidson diagonalization with overlap
     ethr =  1.00E-06,  avg # of iterations = 13.5

     total cpu time spent up to now is       33.5 secs

     total energy              =    -917.99318690 Ry
     Harris-Foulkes estimate   =    -933.00942402 Ry
     estimated scf accuracy    <       4.28392054 Ry

     iteration #  2     ecut=    65.00 Ry     beta= 0.70
     Davidson diagonalization with overlap
     ethr =  3.82E-03,  avg # of iterations =  4.0

     total cpu time spent up to now is       34.3 secs

     total energy              =    -921.55184195 Ry
     Harris-Foulkes estimate   =    -929.60860351 Ry
     estimated scf accuracy    <      23.33830366 Ry

     iteration #  3     ecut=    65.00 Ry     beta= 0.70
     Davidson diagonalization with overlap
     ethr =  3.82E-03,  avg # of iterations =  4.0

     total cpu time spent up to now is       34.9 secs

     total energy              =    -922.04438126 Ry
     Harris-Foulkes estimate   =    -922.94109796 Ry
     estimated scf accuracy    <       4.44770713 Ry

     iteration #  4     ecut=    65.00 Ry     beta= 0.70
     Davidson diagonalization with overlap
     ethr =  3.82E-03,  avg # of iterations =  1.0

     total cpu time spent up to now is       35.2 secs

     total energy              =    -921.77006157 Ry
     Harris-Foulkes estimate   =    -922.12729228 Ry
     estimated scf accuracy    <       2.61201084 Ry

     iteration #  5     ecut=    65.00 Ry     beta= 0.70
     Davidson diagonalization with overlap
     ethr =  2.33E-03,  avg # of iterations =  3.0

     total cpu time spent up to now is       35.5 secs

     total energy              =    -921.82628063 Ry
     Harris-Foulkes estimate   =    -921.91021479 Ry
     estimated scf accuracy    <       1.04350662 Ry

     iteration #  6     ecut=    65.00 Ry     beta= 0.70
     Davidson diagonalization with overlap
     ethr =  9.32E-04,  avg # of iterations =  4.2

     total cpu time spent up to now is       36.0 secs

     total energy              =    -922.05517828 Ry
     Harris-Foulkes estimate   =    -922.05737419 Ry
     estimated scf accuracy    <       0.02210525 Ry

     iteration #  7     ecut=    65.00 Ry     beta= 0.70
     Davidson diagonalization with overlap
     ethr =  1.97E-05,  avg # of iterations =  5.0

     total cpu time spent up to now is       36.6 secs

     total energy              =    -922.05912646 Ry
     Harris-Foulkes estimate   =    -922.06455615 Ry
     estimated scf accuracy    <       0.01060419 Ry

     iteration #  8     ecut=    65.00 Ry     beta= 0.70
     Davidson diagonalization with overlap
     ethr =  9.47E-06,  avg # of iterations =  4.0

     total cpu time spent up to now is       37.1 secs

     total energy              =    -922.05906649 Ry
     Harris-Foulkes estimate   =    -922.06193899 Ry
     estimated scf accuracy    <       0.00608090 Ry

     iteration #  9     ecut=    65.00 Ry     beta= 0.70
     Davidson diagonalization with overlap
     ethr =  5.43E-06,  avg # of iterations =  4.8

     total cpu time spent up to now is       37.8 secs

     total energy              =    -922.06028099 Ry
     Harris-Foulkes estimate   =    -922.06389838 Ry
     estimated scf accuracy    <       0.02082214 Ry

     iteration # 10     ecut=    65.00 Ry     beta= 0.70
     Davidson diagonalization with overlap
     ethr =  5.43E-06,  avg # of iterations =  4.0

     total cpu time spent up to now is       38.3 secs

     total energy              =    -922.06049644 Ry
     Harris-Foulkes estimate   =    -922.06128370 Ry
     estimated scf accuracy    <       0.00309061 Ry

     iteration # 11     ecut=    65.00 Ry     beta= 0.70
     Davidson diagonalization with overlap
     ethr =  2.76E-06,  avg # of iterations =  3.8

     total cpu time spent up to now is       38.7 secs

     total energy              =    -922.06101235 Ry
     Harris-Foulkes estimate   =    -922.06103715 Ry
     estimated scf accuracy    <       0.00010005 Ry

     iteration # 12     ecut=    65.00 Ry     beta= 0.70
     Davidson diagonalization with overlap
     ethr =  8.93E-08,  avg # of iterations =  6.0

     total cpu time spent up to now is       39.5 secs

     total energy              =    -922.06095713 Ry
     Harris-Foulkes estimate   =    -922.06119813 Ry
     estimated scf accuracy    <       0.00051829 Ry

     iteration # 13     ecut=    65.00 Ry     beta= 0.70
     Davidson diagonalization with overlap
     ethr =  8.93E-08,  avg # of iterations =  5.0

     total cpu time spent up to now is       40.2 secs

     total energy              =    -922.06110673 Ry
     Harris-Foulkes estimate   =    -922.06123129 Ry
     estimated scf accuracy    <       0.00078532 Ry

     iteration # 14     ecut=    65.00 Ry     beta= 0.70
     Davidson diagonalization with overlap
     ethr =  8.93E-08,  avg # of iterations =  4.8

     total cpu time spent up to now is       40.8 secs

     total energy              =    -922.06112506 Ry
     Harris-Foulkes estimate   =    -922.06114336 Ry
     estimated scf accuracy    <       0.00008708 Ry

     iteration # 15     ecut=    65.00 Ry     beta= 0.70
     Davidson diagonalization with overlap
     ethr =  7.78E-08,  avg # of iterations =  2.8

     total cpu time spent up to now is       41.3 secs

     total energy              =    -922.06112747 Ry
     Harris-Foulkes estimate   =    -922.06112939 Ry
     estimated scf accuracy    <       0.00001882 Ry

     iteration # 16     ecut=    65.00 Ry     beta= 0.70
     Davidson diagonalization with overlap
     ethr =  1.68E-08,  avg # of iterations =  4.0

     total cpu time spent up to now is       41.8 secs

     total energy              =    -922.06113326 Ry
     Harris-Foulkes estimate   =    -922.06113326 Ry
     estimated scf accuracy    <       0.00000096 Ry

     iteration # 17     ecut=    65.00 Ry     beta= 0.70
     Davidson diagonalization with overlap
     ethr =  8.61E-10,  avg # of iterations =  3.5

     total cpu time spent up to now is       42.2 secs

     total energy              =    -922.06113324 Ry
     Harris-Foulkes estimate   =    -922.06113341 Ry
     estimated scf accuracy    <       0.00000173 Ry

     iteration # 18     ecut=    65.00 Ry     beta= 0.70
     Davidson diagonalization with overlap
     ethr =  8.61E-10,  avg # of iterations =  1.0

     total cpu time spent up to now is       42.5 secs

     total energy              =    -922.06113312 Ry
     Harris-Foulkes estimate   =    -922.06113325 Ry
     estimated scf accuracy    <       0.00000125 Ry

     iteration # 19     ecut=    65.00 Ry     beta= 0.70
     Davidson diagonalization with overlap
     ethr =  8.61E-10,  avg # of iterations =  1.0

     total cpu time spent up to now is       42.8 secs

     total energy              =    -922.06113308 Ry
     Harris-Foulkes estimate   =    -922.06113315 Ry
     estimated scf accuracy    <       0.00000073 Ry

     iteration # 20     ecut=    65.00 Ry     beta= 0.70
     Davidson diagonalization with overlap
     ethr =  6.49E-10,  avg # of iterations =  3.8

     total cpu time spent up to now is       43.2 secs

     total energy              =    -922.06113311 Ry
     Harris-Foulkes estimate   =    -922.06113312 Ry
     estimated scf accuracy    <       0.00000032 Ry

     iteration # 21     ecut=    65.00 Ry     beta= 0.70
     Davidson diagonalization with overlap
     ethr =  2.83E-10,  avg # of iterations =  4.2

     total cpu time spent up to now is       43.7 secs

     total energy              =    -922.06113318 Ry
     Harris-Foulkes estimate   =    -922.06113319 Ry
     estimated scf accuracy    <       0.00000001 Ry

     iteration # 22     ecut=    65.00 Ry     beta= 0.70
     Davidson diagonalization with overlap
     ethr =  1.04E-11,  avg # of iterations =  5.0

     total cpu time spent up to now is       44.3 secs

     total energy              =    -922.06113319 Ry
     Harris-Foulkes estimate   =    -922.06113319 Ry
     estimated scf accuracy    <          7.5E-09 Ry

     iteration # 23     ecut=    65.00 Ry     beta= 0.70
     Davidson diagonalization with overlap
     ethr =  6.70E-12,  avg # of iterations =  4.2

     total cpu time spent up to now is       44.9 secs

     total energy              =    -922.06113319 Ry
     Harris-Foulkes estimate   =    -922.06113319 Ry
     estimated scf accuracy    <       0.00000005 Ry

     iteration # 24     ecut=    65.00 Ry     beta= 0.70
     Davidson diagonalization with overlap
     ethr =  6.70E-12,  avg # of iterations =  1.0

     total cpu time spent up to now is       45.2 secs

     total energy              =    -922.06113319 Ry
     Harris-Foulkes estimate   =    -922.06113319 Ry
     estimated scf accuracy    <       0.00000004 Ry

     iteration # 25     ecut=    65.00 Ry     beta= 0.70
     Davidson diagonalization with overlap
     ethr =  6.70E-12,  avg # of iterations =  4.0

     total cpu time spent up to now is       45.8 secs

     total energy              =    -922.06113319 Ry
     Harris-Foulkes estimate   =    -922.06113319 Ry
     estimated scf accuracy    <          3.2E-09 Ry

     iteration # 26     ecut=    65.00 Ry     beta= 0.70
     Davidson diagonalization with overlap
     ethr =  2.84E-12,  avg # of iterations =  4.2

     total cpu time spent up to now is       46.4 secs

     total energy              =    -922.06113319 Ry
     Harris-Foulkes estimate   =    -922.06113319 Ry
     estimated scf accuracy    <          3.3E-09 Ry

     iteration # 27     ecut=    65.00 Ry     beta= 0.70
     Davidson diagonalization with overlap
     ethr =  2.84E-12,  avg # of iterations =  2.8

     total cpu time spent up to now is       46.7 secs

     total energy              =    -922.06113319 Ry
     Harris-Foulkes estimate   =    -922.06113319 Ry
     estimated scf accuracy    <          9.1E-10 Ry

     iteration # 28     ecut=    65.00 Ry     beta= 0.70
     Davidson diagonalization with overlap
     ethr =  8.17E-13,  avg # of iterations =  4.0

     total cpu time spent up to now is       47.3 secs

     total energy              =    -922.06113319 Ry
     Harris-Foulkes estimate   =    -922.06113319 Ry
     estimated scf accuracy    <          1.5E-09 Ry

     iteration # 29     ecut=    65.00 Ry     beta= 0.70
     Davidson diagonalization with overlap
     ethr =  8.17E-13,  avg # of iterations =  1.0

     total cpu time spent up to now is       47.6 secs

     total energy              =    -922.06113319 Ry
     Harris-Foulkes estimate   =    -922.06113319 Ry
     estimated scf accuracy    <          2.1E-09 Ry

     iteration # 30     ecut=    65.00 Ry     beta= 0.70
     Davidson diagonalization with overlap
     ethr =  8.17E-13,  avg # of iterations =  4.0

     total cpu time spent up to now is       48.1 secs

     total energy              =    -922.06113319 Ry
     Harris-Foulkes estimate   =    -922.06113319 Ry
     estimated scf accuracy    <          2.0E-10 Ry

     iteration # 31     ecut=    65.00 Ry     beta= 0.70
     Davidson diagonalization with overlap
     ethr =  1.81E-13,  avg # of iterations =  4.0

     total cpu time spent up to now is       48.5 secs

     End of self-consistent calculation

          k = 0.0000 0.0000 0.0000 ( 10339 PWs)   bands (ev):

   -59.4406 -59.4378 -59.4265 -59.4252 -33.4632 -33.4578 -33.4520 -33.4446
   -33.4197 -33.3644 -33.3270 -33.3042 -33.3015 -33.2727 -33.2625 -33.2597
   -13.1935 -13.0610 -12.0364 -11.9651 -11.8629 -11.7466 -11.2871 -11.2840
   -11.1207 -11.0951  -0.0583  -0.0108   0.0100   0.1157   0.3200   0.8908
     1.5364   1.6108   1.7436   1.8442   2.1785   2.2046   2.4206   2.5542
     2.5774   2.5859   2.5878   2.6238   2.7594   2.8730   2.8923   2.9786
     3.1219   3.4600   3.5431   3.5527   3.5825   3.8457   3.8611   3.9181

          k = 0.0000 0.2708 0.0000 ( 10311 PWs)   bands (ev):

   -59.4398 -59.4382 -59.4268 -59.4242 -33.4661 -33.4608 -33.4568 -33.4494
   -33.4194 -33.3639 -33.3270 -33.3040 -33.3012 -33.2726 -33.2624 -33.2596
   -13.1099 -12.9893 -11.9699 -11.9355 -11.8493 -11.7259 -11.2764 -11.2472
   -11.0567 -11.0285  -0.0827  -0.0591  -0.0388   0.0693   0.1359   0.4410
     0.7439   0.9170   0.9410   1.0702   1.5975   1.8454   1.8990   2.2778
     2.3506   2.5168   2.6190   2.8002   3.0113   3.1330   3.2567   3.3590
     3.5642   3.5854   3.5941   3.6989   3.7216   4.1027   4.1254   4.3809

          k = 0.3333 0.0000 0.0000 ( 10287 PWs)   bands (ev):

   -59.4346 -59.4330 -59.4273 -59.4254 -33.4557 -33.4523 -33.4477 -33.4426
   -33.4186 -33.3914 -33.3759 -33.3679 -33.3077 -33.3038 -33.2862 -33.2721
   -12.5754 -12.4189 -11.9296 -11.7716 -11.7405 -11.6884 -11.2223 -11.2137
   -11.1783 -11.1346  -0.6194  -0.5379   0.2375   0.2809   0.4267   0.7740
     0.8528   1.2852   1.3419   1.6232   1.6890   1.7600   2.0924   2.2320
     2.2570   2.4988   2.5450   2.6812   2.7133   2.7713   2.8680   2.9036
     2.9786   3.3634   3.5729   3.6387   3.7306   3.9350   4.0302   4.0964

          k = 0.3333 0.2708 0.0000 ( 10286 PWs)   bands (ev):

   -59.4345 -59.4324 -59.4276 -59.4258 -33.4589 -33.4556 -33.4520 -33.4469
   -33.4183 -33.3911 -33.3754 -33.3675 -33.3076 -33.3037 -33.2861 -33.2721
   -12.5029 -12.3643 -11.8911 -11.7667 -11.7110 -11.6710 -11.1837 -11.1568
   -11.0766 -11.0543  -0.6187  -0.5342   0.1853   0.2066   0.2870   0.5227
     0.6566   0.7501   0.8236   1.0828   1.1419   1.4096   1.7246   1.7423
     1.8601   1.8679   2.0667   2.1411   2.3512   2.8358   3.0275   3.2831
     3.5056   3.5711   4.0272   4.1836   4.1852   4.3200   4.3721   4.4052

     highest occupied level (ev):     4.4052

!    total energy              =    -922.06113319 Ry
     Harris-Foulkes estimate   =    -922.06113319 Ry
     estimated scf accuracy    <          4.2E-11 Ry

     The total energy is the sum of the following terms:

     one-electron contribution =    -569.95929401 Ry
     hartree contribution      =     326.46816415 Ry
     xc contribution           =    -174.28189966 Ry
     ewald contribution        =    -504.15274026 Ry
     Dispersion Correction     =      -0.13536341 Ry

     convergence has been achieved in  31 iterations

     Forces acting on atoms (cartesian axes, Ry/au):

     atom    1 type  1   force =     0.00000000   -0.02680514   -0.00146508
     atom    2 type  1   force =     0.00000000    0.02680514    0.00146508
     atom    3 type  1   force =     0.00000000    0.02680514   -0.00146508
     atom    4 type  1   force =     0.00000000   -0.02680514    0.00146508
     atom    5 type  2   force =     0.00000000    0.00659539   -0.00251653
     atom    6 type  2   force =     0.00000000   -0.00659539    0.00251653
     atom    7 type  2   force =     0.00000000   -0.00659539   -0.00251653
     atom    8 type  2   force =     0.00000000    0.00659539    0.00251653
     atom    9 type  2   force =     0.00000000    0.00607491   -0.00059483
     atom   10 type  2   force =     0.00000000   -0.00607491    0.00059483
     atom   11 type  2   force =     0.00000000   -0.00607491   -0.00059483
     atom   12 type  2   force =     0.00000000   -0.01222111   -0.00000000
     atom   13 type  2   force =     0.00000000    0.01222111   -0.00000000
     atom   14 type  2   force =     0.00000000    0.00607491    0.00059483

     Total force =     0.059411     Total SCF correction =     0.000014


     Computing stress (Cartesian axis) and pressure

          total   stress  (Ry/bohr**3)                   (kbar)     P=  -23.37
  -0.00002190   0.00000000   0.00000000         -3.22      0.00      0.00
   0.00000000  -0.00044624   0.00000000          0.00    -65.64      0.00
   0.00000000   0.00000000  -0.00000844          0.00      0.00     -1.24


     number of scf cycles    =   3
     number of bfgs steps    =   1

     enthalpy old            =    -922.0276722868 Ry
     enthalpy new            =    -922.0611331878 Ry

     CASE: enthalpy_new < enthalpy_old

     new trust radius        =       0.0428597966 bohr
     new conv_thr            =            1.0E-10 Ry

     new unit-cell volume =   1170.48482 a.u.^3 (   173.44795 Ang^3 )
     density =      3.48253 g/cm^3

CELL_PARAMETERS (alat=  6.63810422)
   0.999623266   0.000000000   0.000000000
   0.000000000   1.223407668   0.000000000
   0.000000000   0.000000000   3.272095955

ATOMIC_POSITIONS (crystal)
V        0.000000000   0.388006434   0.648175563
V        0.500000002   0.611993571   0.851824442
V        0.500000002   0.611993571   0.148175562
V        0.000000000   0.388006434   0.351824440
O        0.500000002   0.493424685   0.681113958
O        0.000000000   0.506575319   0.818886048
O        0.000000000   0.506575319   0.181113956
O        0.500000002   0.493424685   0.318886046
O        0.000000000   0.020514937   0.354176830
O        0.500000002   0.979485067   0.145823173
O        0.500000002   0.979485067   0.854176832
O        0.500000002   0.507078807  -0.000000000
O        0.000000000   0.492921198   0.500000002
O        0.000000000   0.020514937   0.645823175



     Writing output data file v2o5.save/
     NEW-OLD atomic charge density approx. for the potential

     Check: negative core charge=   -0.000019
     extrapolated charge  111.23350, renormalised to  112.00000

     total cpu time spent up to now is       49.6 secs

     Self-consistent Calculation

     iteration #  1     ecut=    65.00 Ry     beta= 0.70
     Davidson diagonalization with overlap
     ethr =  1.00E-06,  avg # of iterations =  9.0

     total cpu time spent up to now is       51.0 secs

     total energy              =    -921.88288657 Ry
     Harris-Foulkes estimate   =    -925.26735548 Ry
     estimated scf accuracy    <       0.17834666 Ry

     iteration #  2     ecut=    65.00 Ry     beta= 0.70
     Davidson diagonalization with overlap
     ethr =  1.59E-04,  avg # of iterations =  5.0

     total cpu time spent up to now is       51.8 secs

     total energy              =    -921.88183916 Ry
     Harris-Foulkes estimate   =    -922.53936144 Ry
     estimated scf accuracy    <       2.70782458 Ry

     iteration #  3     ecut=    65.00 Ry     beta= 0.70
     Davidson diagonalization with overlap
     ethr =  1.59E-04,  avg # of iterations =  5.0

     total cpu time spent up to now is       52.6 secs

     total energy              =    -922.06891333 Ry
     Harris-Foulkes estimate   =    -922.08867174 Ry
     estimated scf accuracy    <       0.14106543 Ry

     iteration #  4     ecut=    65.00 Ry     beta= 0.70
     Davidson diagonalization with overlap
     ethr =  1.26E-04,  avg # of iterations =  1.0

     total cpu time spent up to now is       52.9 secs

     total energy              =    -922.05627776 Ry
     Harris-Foulkes estimate   =    -922.07060118 Ry
     estimated scf accuracy    <       0.09975850 Ry

     iteration #  5     ecut=    65.00 Ry     beta= 0.70
     Davidson diagonalization with overlap
     ethr =  8.91E-05,  avg # of iterations =  3.0

     total cpu time spent up to now is       53.3 secs

     total energy              =    -922.06263120 Ry
     Harris-Foulkes estimate   =    -922.06265362 Ry
     estimated scf accuracy    <       0.01606662 Ry

     iteration #  6     ecut=    65.00 Ry     beta= 0.70
     Davidson diagonalization with overlap
     ethr =  1.43E-05,  avg # of iterations =  4.8

     total cpu time spent up to now is       53.8 secs

     total energy              =    -922.06519480 Ry
     Harris-Foulkes estimate   =    -922.06540307 Ry
     estimated scf accuracy    <       0.00451888 Ry

     iteration #  7     ecut=    65.00 Ry     beta= 0.70
     Davidson diagonalization with overlap
     ethr =  4.03E-06,  avg # of iterations =  2.8

     total cpu time spent up to now is       54.1 secs

     total energy              =    -922.06425270 Ry
     Harris-Foulkes estimate   =    -922.06531346 Ry
     estimated scf accuracy    <       0.00358497 Ry

     iteration #  8     ecut=    65.00 Ry     beta= 0.70
     Davidson diagonalization with overlap
     ethr =  3.20E-06,  avg # of iterations =  4.0

     total cpu time spent up to now is       54.6 secs

     total energy              =    -922.06455755 Ry
     Harris-Foulkes estimate   =    -922.06469410 Ry
     estimated scf accuracy    <       0.00029017 Ry

     iteration #  9     ecut=    65.00 Ry     beta= 0.70
     Davidson diagonalization with overlap
     ethr =  2.59E-07,  avg # of iterations =  5.0

     total cpu time spent up to now is       55.4 secs

     total energy              =    -922.06488236 Ry
     Harris-Foulkes estimate   =    -922.06490541 Ry
     estimated scf accuracy    <       0.00155795 Ry

     iteration # 10     ecut=    65.00 Ry     beta= 0.70
     Davidson diagonalization with overlap
     ethr =  2.59E-07,  avg # of iterations =  1.0

     total cpu time spent up to now is       55.6 secs

     total energy              =    -922.06454093 Ry
     Harris-Foulkes estimate   =    -922.06488281 Ry
     estimated scf accuracy    <       0.00150524 Ry

     iteration # 11     ecut=    65.00 Ry     beta= 0.70
     Davidson diagonalization with overlap
     ethr =  2.59E-07,  avg # of iterations =  4.0

     total cpu time spent up to now is       56.3 secs

     total energy              =    -922.06474862 Ry
     Harris-Foulkes estimate   =    -922.06472264 Ry
     estimated scf accuracy    <       0.00004489 Ry

     iteration # 12     ecut=    65.00 Ry     beta= 0.70
     Davidson diagonalization with overlap
     ethr =  4.01E-08,  avg # of iterations =  5.0

     total cpu time spent up to now is       57.1 secs

     total energy              =    -922.06480622 Ry
     Harris-Foulkes estimate   =    -922.06481199 Ry
     estimated scf accuracy    <       0.00077067 Ry

     iteration # 13     ecut=    65.00 Ry     beta= 0.70
     Davidson diagonalization with overlap
     ethr =  4.01E-08,  avg # of iterations =  1.0

     total cpu time spent up to now is       57.4 secs

     total energy              =    -922.06470977 Ry
     Harris-Foulkes estimate   =    -922.06480644 Ry
     estimated scf accuracy    <       0.00075487 Ry

     iteration # 14     ecut=    65.00 Ry     beta= 0.70
     Davidson diagonalization with overlap
     ethr =  4.01E-08,  avg # of iterations =  4.0

     total cpu time spent up to now is       58.0 secs

     total energy              =    -922.06466141 Ry
     Harris-Foulkes estimate   =    -922.06473413 Ry
     estimated scf accuracy    <       0.00016073 Ry

     iteration # 15     ecut=    65.00 Ry     beta= 0.70
     Davidson diagonalization with overlap
     ethr =  4.01E-08,  avg # of iterations =  5.0

     total cpu time spent up to now is       58.8 secs

     total energy              =    -922.06471209 Ry
     Harris-Foulkes estimate   =    -922.06473941 Ry
     estimated scf accuracy    <       0.00020596 Ry

     iteration # 16     ecut=    65.00 Ry     beta= 0.70
     Davidson diagonalization with overlap
     ethr =  4.01E-08,  avg # of iterations =  4.0

     total cpu time spent up to now is       59.3 secs

     total energy              =    -922.06471076 Ry
     Harris-Foulkes estimate   =    -922.06471838 Ry
     estimated scf accuracy    <       0.00005012 Ry

     iteration # 17     ecut=    65.00 Ry     beta= 0.70
     Davidson diagonalization with overlap
     ethr =  4.01E-08,  avg # of iterations =  1.8

     total cpu time spent up to now is       59.6 secs

     total energy              =    -922.06470768 Ry
     Harris-Foulkes estimate   =    -922.06471194 Ry
     estimated scf accuracy    <       0.00002738 Ry

     iteration # 18     ecut=    65.00 Ry     beta= 0.70
     Davidson diagonalization with overlap
     ethr =  2.44E-08,  avg # of iterations =  4.0

     total cpu time spent up to now is       60.1 secs

     total energy              =    -922.06471392 Ry
     Harris-Foulkes estimate   =    -922.06471422 Ry
     estimated scf accuracy    <       0.00000252 Ry

     iteration # 19     ecut=    65.00 Ry     beta= 0.70
     Davidson diagonalization with overlap
     ethr =  2.25E-09,  avg # of iterations =  3.0

     total cpu time spent up to now is       60.5 secs

     total energy              =    -922.06471339 Ry
     Harris-Foulkes estimate   =    -922.06471403 Ry
     estimated scf accuracy    <       0.00000194 Ry

     iteration # 20     ecut=    65.00 Ry     beta= 0.70
     Davidson diagonalization with overlap
     ethr =  1.73E-09,  avg # of iterations =  4.0

     total cpu time spent up to now is       61.1 secs

     total energy              =    -922.06471397 Ry
     Harris-Foulkes estimate   =    -922.06471411 Ry
     estimated scf accuracy    <       0.00000124 Ry

     iteration # 21     ecut=    65.00 Ry     beta= 0.70
     Davidson diagonalization with overlap
     ethr =  1.10E-09,  avg # of iterations =  1.0

     total cpu time spent up to now is       61.3 secs

     total energy              =    -922.06471395 Ry
     Harris-Foulkes estimate   =    -922.06471398 Ry
     estimated scf accuracy    <       0.00000082 Ry

     iteration # 22     ecut=    65.00 Ry     beta= 0.70
     Davidson diagonalization with overlap
     ethr =  7.28E-10,  avg # of iterations =  1.0

     total cpu time spent up to now is       61.6 secs

     total energy              =    -922.06471388 Ry
     Harris-Foulkes estimate   =    -922.06471396 Ry
     estimated scf accuracy    <       0.00000068 Ry

     iteration # 23     ecut=    65.00 Ry     beta= 0.70
     Davidson diagonalization with overlap
     ethr =  6.07E-10,  avg # of iterations =  2.5

     total cpu time spent up to now is       62.0 secs

     total energy              =    -922.06471391 Ry
     Harris-Foulkes estimate   =    -922.06471391 Ry
     estimated scf accuracy    <       0.00000026 Ry

     iteration # 24     ecut=    65.00 Ry     beta= 0.70
     Davidson diagonalization with overlap
     ethr =  2.34E-10,  avg # of iterations =  4.2

     total cpu time spent up to now is       62.5 secs

     total energy              =    -922.06471395 Ry
     Harris-Foulkes estimate   =    -922.06471396 Ry
     estimated scf accuracy    <       0.00000002 Ry

     iteration # 25     ecut=    65.00 Ry     beta= 0.70
     Davidson diagonalization with overlap
     ethr =  1.48E-11,  avg # of iterations =  4.2

     total cpu time spent up to now is       63.1 secs

     total energy              =    -922.06471396 Ry
     Harris-Foulkes estimate   =    -922.06471396 Ry
     estimated scf accuracy    <          8.7E-09 Ry

     iteration # 26     ecut=    65.00 Ry     beta= 0.70
     Davidson diagonalization with overlap
     ethr =  7.75E-12,  avg # of iterations =  1.2

     total cpu time spent up to now is       63.4 secs

     total energy              =    -922.06471396 Ry
     Harris-Foulkes estimate   =    -922.06471396 Ry
     estimated scf accuracy    <          4.9E-09 Ry

     iteration # 27     ecut=    65.00 Ry     beta= 0.70
     Davidson diagonalization with overlap
     ethr =  4.39E-12,  avg # of iterations =  4.0

     total cpu time spent up to now is       64.0 secs

     total energy              =    -922.06471396 Ry
     Harris-Foulkes estimate   =    -922.06471396 Ry
     estimated scf accuracy    <          5.7E-09 Ry

     iteration # 28     ecut=    65.00 Ry     beta= 0.70
     Davidson diagonalization with overlap
     ethr =  4.39E-12,  avg # of iterations =  1.0

     total cpu time spent up to now is       64.3 secs

     total energy              =    -922.06471396 Ry
     Harris-Foulkes estimate   =    -922.06471396 Ry
     estimated scf accuracy    <          5.8E-09 Ry

     iteration # 29     ecut=    65.00 Ry     beta= 0.70
     Davidson diagonalization with overlap
     ethr =  4.39E-12,  avg # of iterations =  1.0

     total cpu time spent up to now is       64.6 secs

     total energy              =    -922.06471396 Ry
     Harris-Foulkes estimate   =    -922.06471396 Ry
     estimated scf accuracy    <          3.9E-09 Ry

     iteration # 30     ecut=    65.00 Ry     beta= 0.70
     Davidson diagonalization with overlap
     ethr =  3.51E-12,  avg # of iterations =  1.0

     total cpu time spent up to now is       64.8 secs

     total energy              =    -922.06471396 Ry
     Harris-Foulkes estimate   =    -922.06471396 Ry
     estimated scf accuracy    <          2.6E-09 Ry

     iteration # 31     ecut=    65.00 Ry     beta= 0.70
     Davidson diagonalization with overlap
     ethr =  2.28E-12,  avg # of iterations =  1.0

     total cpu time spent up to now is       65.1 secs

     total energy              =    -922.06471396 Ry
     Harris-Foulkes estimate   =    -922.06471396 Ry
     estimated scf accuracy    <          2.2E-09 Ry

     iteration # 32     ecut=    65.00 Ry     beta= 0.70
     Davidson diagonalization with overlap
     ethr =  1.97E-12,  avg # of iterations =  1.0

     total cpu time spent up to now is       65.4 secs

     total energy              =    -922.06471396 Ry
     Harris-Foulkes estimate   =    -922.06471396 Ry
     estimated scf accuracy    <          2.6E-09 Ry

     iteration # 33     ecut=    65.00 Ry     beta= 0.70
     Davidson diagonalization with overlap
     ethr =  1.97E-12,  avg # of iterations =  3.0

     total cpu time spent up to now is       65.8 secs

     total energy              =    -922.06471396 Ry
     Harris-Foulkes estimate   =    -922.06471396 Ry
     estimated scf accuracy    <          7.3E-10 Ry

     iteration # 34     ecut=    65.00 Ry     beta= 0.70
     Davidson diagonalization with overlap
     ethr =  6.51E-13,  avg # of iterations =  4.0

     total cpu time spent up to now is       66.3 secs

     End of self-consistent calculation

          k = 0.0000 0.0000 0.0000 ( 10339 PWs)   bands (ev):

   -59.3366 -59.3339 -59.3225 -59.3212 -33.3849 -33.3817 -33.3752 -33.3690
   -33.3117 -33.2542 -33.2175 -33.1945 -33.1917 -33.1622 -33.1530 -33.1502
   -13.0929 -12.9600 -11.9400 -11.8616 -11.7477 -11.6366 -11.2355 -11.2250
   -11.0728 -11.0381   0.0617   0.0958   0.1153   0.2229   0.4335   0.9813
     1.6356   1.6689   1.8384   1.9259   2.2393   2.2671   2.4844   2.6124
     2.6163   2.6720   2.6789   2.7081   2.8139   2.8867   2.9271   3.0455
     3.1832   3.5688   3.6007   3.6297   3.6442   3.8911   3.9539   3.9981

          k = 0.0000 0.2725 0.0000 ( 10311 PWs)   bands (ev):

   -59.3358 -59.3342 -59.3229 -59.3203 -33.3883 -33.3851 -33.3805 -33.3742
   -33.3111 -33.2536 -33.2175 -33.1942 -33.1914 -33.1621 -33.1529 -33.1501
   -13.0011 -12.8813 -11.8637 -11.8270 -11.7324 -11.6117 -11.2221 -11.1950
   -11.0027 -10.9770   0.0267   0.0407   0.0597   0.1712   0.2260   0.4760
     0.8081   0.9553   1.0154   1.1160   1.6352   1.8779   1.9335   2.3291
     2.3924   2.6102   2.7429   2.8929   3.1013   3.1611   3.3098   3.4087
     3.6355   3.6557   3.7017   3.8053   3.8175   4.2004   4.2058   4.4542

          k = 0.3335 0.0000 0.0000 ( 10287 PWs)   bands (ev):

   -59.3307 -59.3290 -59.3234 -59.3215 -33.3783 -33.3757 -33.3718 -33.3673
   -33.3095 -33.2809 -33.2667 -33.2578 -33.1982 -33.1945 -33.1762 -33.1618
   -12.4750 -12.3187 -11.8214 -11.6648 -11.6390 -11.5790 -11.1726 -11.1561
   -11.1361 -11.0780  -0.5068  -0.4263   0.3575   0.3832   0.5427   0.8662
     0.9502   1.3896   1.4301   1.7071   1.7628   1.8240   2.1781   2.2971
     2.3110   2.5762   2.5821   2.7259   2.7766   2.8411   2.9111   2.9859
     3.0525   3.4319   3.6351   3.6833   3.7885   3.9764   4.1189   4.2130

          k = 0.3335 0.2725 0.0000 ( 10286 PWs)   bands (ev):

   -59.3305 -59.3284 -59.3237 -59.3218 -33.3821 -33.3794 -33.3766 -33.3720
   -33.3090 -33.2805 -33.2662 -33.2574 -33.1982 -33.1944 -33.1762 -33.1618
   -12.3946 -12.2580 -11.7765 -11.6595 -11.6044 -11.5577 -11.1298 -11.1049
   -11.0230 -11.0041  -0.5063  -0.4227   0.2892   0.2947   0.3788   0.5716
     0.7384   0.8314   0.8861   1.1290   1.1855   1.4960   1.7745   1.8120
     1.9336   1.9388   2.1119   2.2064   2.4023   2.8802   3.1182   3.3353
     3.5814   3.6553   4.0999   4.2603   4.2797   4.4229   4.4591   4.4803

     highest occupied level (ev):     4.4803

!    total energy              =    -922.06471396 Ry
     Harris-Foulkes estimate   =    -922.06471396 Ry
     estimated scf accuracy    <          6.5E-12 Ry

     The total energy is the sum of the following terms:

     one-electron contribution =    -566.16362180 Ry
     hartree contribution      =     324.95199308 Ry
     xc contribution           =    -174.33522218 Ry
     ewald contribution        =    -506.38141940 Ry
     Dispersion Correction     =      -0.13644365 Ry

     convergence has been achieved in  34 iterations

     Forces acting on atoms (cartesian axes, Ry/au):

     atom    1 type  1   force =     0.00000000   -0.00684114   -0.00159458
     atom    2 type  1   force =     0.00000000    0.00684114    0.00159458
     atom    3 type  1   force =     0.00000000    0.00684114   -0.00159458
     atom    4 type  1   force =     0.00000000   -0.00684114    0.00159458
     atom    5 type  2   force =     0.00000000    0.00573087   -0.00204237
     atom    6 type  2   force =     0.00000000   -0.00573087    0.00204237
     atom    7 type  2   force =     0.00000000   -0.00573087   -0.00204237
     atom    8 type  2   force =     0.00000000    0.00573087    0.00204237
     atom    9 type  2   force =    -0.00000000   -0.01091150   -0.00019183
     atom   10 type  2   force =     0.00000000    0.01091150    0.00019183
     atom   11 type  2   force =     0.00000000    0.01091150   -0.00019183
     atom   12 type  2   force =    -0.00000000   -0.00952220    0.00000000
     atom   13 type  2   force =     0.00000000    0.00952220   -0.00000000
     atom   14 type  2   force =    -0.00000000   -0.01091150    0.00019183

     Total force =     0.031673     Total SCF correction =     0.000006


     Computing stress (Cartesian axis) and pressure

          total   stress  (Ry/bohr**3)                   (kbar)     P=   -9.74
   0.00000123   0.00000000   0.00000000          0.18      0.00      0.00
   0.00000000  -0.00019760   0.00000000          0.00    -29.07      0.00
   0.00000000   0.00000000  -0.00000229          0.00      0.00     -0.34


     number of scf cycles    =   4
     number of bfgs steps    =   2

     enthalpy old            =    -922.0611331878 Ry
     enthalpy new            =    -922.0647139628 Ry

     CASE: enthalpy_new < enthalpy_old

     new trust radius        =       0.0472804120 bohr
     new conv_thr            =            3.6E-11 Ry

     new unit-cell volume =   1162.19075 a.u.^3 (   172.21890 Ang^3 )
     density =      3.50738 g/cm^3

CELL_PARAMETERS (alat=  6.63810422)
   0.999523095   0.000000000   0.000000000
   0.000000000   1.214954110   0.000000000
   0.000000000   0.000000000   3.271843392

ATOMIC_POSITIONS (crystal)
V        0.000000000   0.387082890   0.648089260
V        0.500000002   0.612917114   0.851910745
V        0.500000002   0.612917114   0.148089259
V        0.000000000   0.387082890   0.351910743
O        0.500000002   0.494539997   0.680961122
O        0.000000000   0.505460007   0.819038884
O        0.000000000   0.505460007   0.180961121
O        0.500000002   0.494539997   0.319038882
O       -0.000000000   0.017980015   0.354162937
O        0.500000002   0.982019990   0.145837067
O        0.500000002   0.982019990   0.854162938
O        0.500000002   0.505160071  -0.000000000
O        0.000000000   0.494839934   0.500000002
O       -0.000000000   0.017980015   0.645837069



     Writing output data file v2o5.save/
     NEW-OLD atomic charge density approx. for the potential

     Check: negative core charge=   -0.000018
     extrapolated charge  111.20073, renormalised to  112.00000

     total cpu time spent up to now is       67.4 secs

     Self-consistent Calculation

     iteration #  1     ecut=    65.00 Ry     beta= 0.70
     Davidson diagonalization with overlap
     ethr =  1.00E-06,  avg # of iterations =  9.2

     total cpu time spent up to now is       68.9 secs

     total energy              =    -921.88424716 Ry
     Harris-Foulkes estimate   =    -925.37453670 Ry
     estimated scf accuracy    <       0.17721984 Ry

     iteration #  2     ecut=    65.00 Ry     beta= 0.70
     Davidson diagonalization with overlap
     ethr =  1.58E-04,  avg # of iterations =  5.0

     total cpu time spent up to now is       69.6 secs

     total energy              =    -921.88816753 Ry
     Harris-Foulkes estimate   =    -922.54074938 Ry
     estimated scf accuracy    <       2.68563241 Ry

     iteration #  3     ecut=    65.00 Ry     beta= 0.70
     Davidson diagonalization with overlap
     ethr =  1.58E-04,  avg # of iterations =  5.0

     total cpu time spent up to now is       70.6 secs

     total energy              =    -922.07224030 Ry
     Harris-Foulkes estimate   =    -922.09238636 Ry
     estimated scf accuracy    <       0.14547463 Ry

     iteration #  4     ecut=    65.00 Ry     beta= 0.70
     Davidson diagonalization with overlap
     ethr =  1.30E-04,  avg # of iterations =  1.0

     total cpu time spent up to now is       70.8 secs

     total energy              =    -922.05890751 Ry
     Harris-Foulkes estimate   =    -922.07395650 Ry
     estimated scf accuracy    <       0.10310949 Ry

     iteration #  5     ecut=    65.00 Ry     beta= 0.70
     Davidson diagonalization with overlap
     ethr =  9.21E-05,  avg # of iterations =  3.0

     total cpu time spent up to now is       71.2 secs

     total energy              =    -922.06522549 Ry
     Harris-Foulkes estimate   =    -922.06522804 Ry
     estimated scf accuracy    <       0.01831729 Ry

     iteration #  6     ecut=    65.00 Ry     beta= 0.70
     Davidson diagonalization with overlap
     ethr =  1.64E-05,  avg # of iterations =  4.8

     total cpu time spent up to now is       71.7 secs

     total energy              =    -922.06797424 Ry
     Harris-Foulkes estimate   =    -922.06807384 Ry
     estimated scf accuracy    <       0.00595107 Ry

     iteration #  7     ecut=    65.00 Ry     beta= 0.70
     Davidson diagonalization with overlap
     ethr =  5.31E-06,  avg # of iterations =  3.5

     total cpu time spent up to now is       72.1 secs

     total energy              =    -922.06785827 Ry
     Harris-Foulkes estimate   =    -922.06814085 Ry
     estimated scf accuracy    <       0.00492072 Ry

     iteration #  8     ecut=    65.00 Ry     beta= 0.70
     Davidson diagonalization with overlap
     ethr =  4.39E-06,  avg # of iterations =  1.0

     total cpu time spent up to now is       72.3 secs

     total energy              =    -922.06720237 Ry
     Harris-Foulkes estimate   =    -922.06790945 Ry
     estimated scf accuracy    <       0.00417567 Ry

     iteration #  9     ecut=    65.00 Ry     beta= 0.70
     Davidson diagonalization with overlap
     ethr =  3.73E-06,  avg # of iterations =  2.5

     total cpu time spent up to now is       72.7 secs

     total energy              =    -922.06704559 Ry
     Harris-Foulkes estimate   =    -922.06740808 Ry
     estimated scf accuracy    <       0.00259907 Ry

     iteration # 10     ecut=    65.00 Ry     beta= 0.70
     Davidson diagonalization with overlap
     ethr =  2.32E-06,  avg # of iterations =  3.8

     total cpu time spent up to now is       73.1 secs

     total energy              =    -922.06742412 Ry
     Harris-Foulkes estimate   =    -922.06739530 Ry
     estimated scf accuracy    <       0.00027572 Ry

     iteration # 11     ecut=    65.00 Ry     beta= 0.70
     Davidson diagonalization with overlap
     ethr =  2.46E-07,  avg # of iterations =  3.8

     total cpu time spent up to now is       73.5 secs

     total energy              =    -922.06746827 Ry
     Harris-Foulkes estimate   =    -922.06744322 Ry
     estimated scf accuracy    <       0.00031749 Ry

     iteration # 12     ecut=    65.00 Ry     beta= 0.70
     Davidson diagonalization with overlap
     ethr =  2.46E-07,  avg # of iterations =  2.0

     total cpu time spent up to now is       73.8 secs

     total energy              =    -922.06749539 Ry
     Harris-Foulkes estimate   =    -922.06747578 Ry
     estimated scf accuracy    <       0.00041323 Ry

     iteration # 13     ecut=    65.00 Ry     beta= 0.70
     Davidson diagonalization with overlap
     ethr =  2.46E-07,  avg # of iterations =  1.0

     total cpu time spent up to now is       74.1 secs

     total energy              =    -922.06754714 Ry
     Harris-Foulkes estimate   =    -922.06749967 Ry
     estimated scf accuracy    <       0.00048217 Ry

     iteration # 14     ecut=    65.00 Ry     beta= 0.70
     Davidson diagonalization with overlap
[...]

     iteration # 11     ecut=    65.00 Ry     beta= 0.70
     Davidson diagonalization with overlap
     ethr =  1.64E-06,  avg # of iterations =  4.5

     total cpu time spent up to now is      369.2 secs

     total energy              =    -922.06312202 Ry
     Harris-Foulkes estimate   =    -922.06324918 Ry
     estimated scf accuracy    <       0.00053831 Ry

     iteration # 12     ecut=    65.00 Ry     beta= 0.70
     Davidson diagonalization with overlap
     ethr =  4.81E-07,  avg # of iterations =  4.0

     total cpu time spent up to now is      369.5 secs

     total energy              =    -922.06312294 Ry
     Harris-Foulkes estimate   =    -922.06315337 Ry
     estimated scf accuracy    <       0.00016648 Ry

     iteration # 13     ecut=    65.00 Ry     beta= 0.70
     Davidson diagonalization with overlap
     ethr =  1.49E-07,  avg # of iterations =  4.0

     total cpu time spent up to now is      370.0 secs

     total energy              =    -922.06315830 Ry
     Harris-Foulkes estimate   =    -922.06316101 Ry
     estimated scf accuracy    <       0.00001708 Ry

     iteration # 14     ecut=    65.00 Ry     beta= 0.70
     Davidson diagonalization with overlap
     ethr =  1.52E-08,  avg # of iterations =  4.0

     total cpu time spent up to now is      370.4 secs

     total energy              =    -922.06315841 Ry
     Harris-Foulkes estimate   =    -922.06315986 Ry
     estimated scf accuracy    <       0.00001003 Ry

     iteration # 15     ecut=    65.00 Ry     beta= 0.70
     Davidson diagonalization with overlap
     ethr =  8.96E-09,  avg # of iterations =  4.0

     total cpu time spent up to now is      370.9 secs

     total energy              =    -922.06315862 Ry
     Harris-Foulkes estimate   =    -922.06316039 Ry
     estimated scf accuracy    <       0.00001013 Ry

     iteration # 16     ecut=    65.00 Ry     beta= 0.70
     Davidson diagonalization with overlap
     ethr =  8.96E-09,  avg # of iterations =  1.2

     total cpu time spent up to now is      371.2 secs

     total energy              =    -922.06315838 Ry
     Harris-Foulkes estimate   =    -922.06315888 Ry
     estimated scf accuracy    <       0.00000561 Ry

     iteration # 17     ecut=    65.00 Ry     beta= 0.70
     Davidson diagonalization with overlap
     ethr =  5.01E-09,  avg # of iterations =  2.5

     total cpu time spent up to now is      371.6 secs

     total energy              =    -922.06315733 Ry
     Harris-Foulkes estimate   =    -922.06315864 Ry
     estimated scf accuracy    <       0.00000308 Ry

     iteration # 18     ecut=    65.00 Ry     beta= 0.70
     Davidson diagonalization with overlap
     ethr =  2.75E-09,  avg # of iterations =  5.0

     total cpu time spent up to now is      372.3 secs

     total energy              =    -922.06315828 Ry
     Harris-Foulkes estimate   =    -922.06316041 Ry
     estimated scf accuracy    <       0.00001049 Ry

     iteration # 19     ecut=    65.00 Ry     beta= 0.70
     Davidson diagonalization with overlap
     ethr =  2.75E-09,  avg # of iterations =  4.0

     total cpu time spent up to now is      372.8 secs

     total energy              =    -922.06315885 Ry
     Harris-Foulkes estimate   =    -922.06315898 Ry
     estimated scf accuracy    <       0.00000073 Ry

     iteration # 20     ecut=    65.00 Ry     beta= 0.70
     Davidson diagonalization with overlap
     ethr =  6.54E-10,  avg # of iterations =  3.5

     total cpu time spent up to now is      373.2 secs

     total energy              =    -922.06315877 Ry
     Harris-Foulkes estimate   =    -922.06315888 Ry
     estimated scf accuracy    <       0.00000038 Ry

     iteration # 21     ecut=    65.00 Ry     beta= 0.70
     Davidson diagonalization with overlap
     ethr =  3.38E-10,  avg # of iterations =  4.0

     total cpu time spent up to now is      373.7 secs

     total energy              =    -922.06315888 Ry
     Harris-Foulkes estimate   =    -922.06315893 Ry
     estimated scf accuracy    <       0.00000021 Ry

     iteration # 22     ecut=    65.00 Ry     beta= 0.70
     Davidson diagonalization with overlap
     ethr =  1.85E-10,  avg # of iterations =  1.8

     total cpu time spent up to now is      374.0 secs

     total energy              =    -922.06315888 Ry
     Harris-Foulkes estimate   =    -922.06315889 Ry
     estimated scf accuracy    <       0.00000008 Ry

     iteration # 23     ecut=    65.00 Ry     beta= 0.70
     Davidson diagonalization with overlap
     ethr =  6.72E-11,  avg # of iterations =  4.0

     total cpu time spent up to now is      374.6 secs

     total energy              =    -922.06315890 Ry
     Harris-Foulkes estimate   =    -922.06315890 Ry
     estimated scf accuracy    <       0.00000002 Ry

     iteration # 24     ecut=    65.00 Ry     beta= 0.70
     Davidson diagonalization with overlap
     ethr =  1.37E-11,  avg # of iterations =  1.0

     total cpu time spent up to now is      374.9 secs

     total energy              =    -922.06315890 Ry
     Harris-Foulkes estimate   =    -922.06315890 Ry
     estimated scf accuracy    <       0.00000002 Ry

     iteration # 25     ecut=    65.00 Ry     beta= 0.70
     Davidson diagonalization with overlap
     ethr =  1.37E-11,  avg # of iterations =  1.0

     total cpu time spent up to now is      375.1 secs

     total energy              =    -922.06315890 Ry
     Harris-Foulkes estimate   =    -922.06315890 Ry
     estimated scf accuracy    <       0.00000002 Ry

     iteration # 26     ecut=    65.00 Ry     beta= 0.70
     Davidson diagonalization with overlap
     ethr =  1.37E-11,  avg # of iterations =  1.0

     total cpu time spent up to now is      375.4 secs

     total energy              =    -922.06315890 Ry
     Harris-Foulkes estimate   =    -922.06315890 Ry
     estimated scf accuracy    <          9.7E-09 Ry

     iteration # 27     ecut=    65.00 Ry     beta= 0.70
     Davidson diagonalization with overlap
     ethr =  8.64E-12,  avg # of iterations =  2.2

     total cpu time spent up to now is      375.7 secs

     total energy              =    -922.06315890 Ry
     Harris-Foulkes estimate   =    -922.06315890 Ry
     estimated scf accuracy    <          6.2E-09 Ry

     iteration # 28     ecut=    65.00 Ry     beta= 0.70
     Davidson diagonalization with overlap
     ethr =  5.54E-12,  avg # of iterations =  4.0

     total cpu time spent up to now is      376.3 secs

     total energy              =    -922.06315890 Ry
     Harris-Foulkes estimate   =    -922.06315890 Ry
     estimated scf accuracy    <          1.4E-09 Ry

     iteration # 29     ecut=    65.00 Ry     beta= 0.70
     Davidson diagonalization with overlap
     ethr =  1.26E-12,  avg # of iterations =  3.2

     total cpu time spent up to now is      376.6 secs

     total energy              =    -922.06315890 Ry
     Harris-Foulkes estimate   =    -922.06315890 Ry
     estimated scf accuracy    <          1.0E-09 Ry

     iteration # 30     ecut=    65.00 Ry     beta= 0.70
     Davidson diagonalization with overlap
     ethr =  9.36E-13,  avg # of iterations =  2.2

     total cpu time spent up to now is      376.9 secs

     total energy              =    -922.06315890 Ry
     Harris-Foulkes estimate   =    -922.06315890 Ry
     estimated scf accuracy    <          1.2E-09 Ry

     iteration # 31     ecut=    65.00 Ry     beta= 0.70
     Davidson diagonalization with overlap
     ethr =  9.36E-13,  avg # of iterations =  4.2

     total cpu time spent up to now is      377.5 secs

     total energy              =    -922.06315890 Ry
     Harris-Foulkes estimate   =    -922.06315890 Ry
     estimated scf accuracy    <          8.4E-09 Ry

     iteration # 32     ecut=    65.00 Ry     beta= 0.70
     Davidson diagonalization with overlap
     ethr =  9.36E-13,  avg # of iterations =  3.2

     total cpu time spent up to now is      377.9 secs

     total energy              =    -922.06315890 Ry
     Harris-Foulkes estimate   =    -922.06315890 Ry
     estimated scf accuracy    <          6.8E-09 Ry

     iteration # 33     ecut=    65.00 Ry     beta= 0.70
     Davidson diagonalization with overlap
     ethr =  9.36E-13,  avg # of iterations =  1.0

     total cpu time spent up to now is      378.2 secs

     total energy              =    -922.06315890 Ry
     Harris-Foulkes estimate   =    -922.06315890 Ry
     estimated scf accuracy    <          6.5E-09 Ry

     iteration # 34     ecut=    65.00 Ry     beta= 0.70
     Davidson diagonalization with overlap
     ethr =  9.36E-13,  avg # of iterations =  4.2

     total cpu time spent up to now is      378.7 secs

     total energy              =    -922.06315890 Ry
     Harris-Foulkes estimate   =    -922.06315890 Ry
     estimated scf accuracy    <          1.7E-09 Ry

     iteration # 35     ecut=    65.00 Ry     beta= 0.70
     Davidson diagonalization with overlap
     ethr =  9.36E-13,  avg # of iterations =  3.0

     total cpu time spent up to now is      379.0 secs

     total energy              =    -922.06315890 Ry
     Harris-Foulkes estimate   =    -922.06315890 Ry
     estimated scf accuracy    <          7.7E-10 Ry

     iteration # 36     ecut=    65.00 Ry     beta= 0.70
     Davidson diagonalization with overlap
     ethr =  6.88E-13,  avg # of iterations =  4.0

     total cpu time spent up to now is      379.5 secs

     total energy              =    -922.06315890 Ry
     Harris-Foulkes estimate   =    -922.06315890 Ry
     estimated scf accuracy    <          3.7E-10 Ry

     iteration # 37     ecut=    65.00 Ry     beta= 0.70
     Davidson diagonalization with overlap
     ethr =  3.34E-13,  avg # of iterations =  1.0

     total cpu time spent up to now is      379.8 secs

     total energy              =    -922.06315890 Ry
     Harris-Foulkes estimate   =    -922.06315890 Ry
     estimated scf accuracy    <          2.7E-10 Ry

     iteration # 38     ecut=    65.00 Ry     beta= 0.70
     Davidson diagonalization with overlap
     ethr =  2.38E-13,  avg # of iterations =  3.0

     total cpu time spent up to now is      380.2 secs

     total energy              =    -922.06315890 Ry
     Harris-Foulkes estimate   =    -922.06315890 Ry
     estimated scf accuracy    <          2.9E-11 Ry

     iteration # 39     ecut=    65.00 Ry     beta= 0.70
     Davidson diagonalization with overlap
     ethr =  1.00E-13,  avg # of iterations =  4.0

     total cpu time spent up to now is      380.8 secs

     total energy              =    -922.06315890 Ry
     Harris-Foulkes estimate   =    -922.06315890 Ry
     estimated scf accuracy    <          2.0E-10 Ry

     iteration # 40     ecut=    65.00 Ry     beta= 0.70
     Davidson diagonalization with overlap
     ethr =  1.00E-13,  avg # of iterations =  1.0

     total cpu time spent up to now is      381.0 secs

     total energy              =    -922.06315890 Ry
     Harris-Foulkes estimate   =    -922.06315890 Ry
     estimated scf accuracy    <          1.3E-10 Ry

     iteration # 41     ecut=    65.00 Ry     beta= 0.70
     Davidson diagonalization with overlap
     ethr =  1.00E-13,  avg # of iterations =  1.0

     total cpu time spent up to now is      381.3 secs

     total energy              =    -922.06315890 Ry
     Harris-Foulkes estimate   =    -922.06315890 Ry
     estimated scf accuracy    <          9.9E-11 Ry

     iteration # 42     ecut=    65.00 Ry     beta= 0.70
     Davidson diagonalization with overlap
     ethr =  1.00E-13,  avg # of iterations =  1.0

     total cpu time spent up to now is      381.6 secs

     total energy              =    -922.06315890 Ry
     Harris-Foulkes estimate   =    -922.06315890 Ry
     estimated scf accuracy    <          7.1E-11 Ry

     iteration # 43     ecut=    65.00 Ry     beta= 0.70
     Davidson diagonalization with overlap
     ethr =  1.00E-13,  avg # of iterations =  1.0

     total cpu time spent up to now is      381.9 secs

     total energy              =    -922.06315890 Ry
     Harris-Foulkes estimate   =    -922.06315890 Ry
     estimated scf accuracy    <          5.2E-11 Ry

     iteration # 44     ecut=    65.00 Ry     beta= 0.70
     Davidson diagonalization with overlap
     ethr =  1.00E-13,  avg # of iterations =  1.0

     total cpu time spent up to now is      382.2 secs

     total energy              =    -922.06315890 Ry
     Harris-Foulkes estimate   =    -922.06315890 Ry
     estimated scf accuracy    <          4.3E-11 Ry

     iteration # 45     ecut=    65.00 Ry     beta= 0.70
     Davidson diagonalization with overlap
     ethr =  1.00E-13,  avg # of iterations =  3.5

     total cpu time spent up to now is      382.5 secs

     total energy              =    -922.06315890 Ry
     Harris-Foulkes estimate   =    -922.06315890 Ry
     estimated scf accuracy    <          1.0E-12 Ry

     iteration # 46     ecut=    65.00 Ry     beta= 0.70
     Davidson diagonalization with overlap
     ethr =  1.00E-13,  avg # of iterations =  1.0

     total cpu time spent up to now is      382.8 secs

     End of self-consistent calculation

          k = 0.0000 0.0000 0.0000 ( 10063 PWs)   bands (ev):

   -58.9784 -58.9756 -58.9652 -58.9628 -33.0115 -33.0086 -33.0032 -32.9967
   -32.9470 -32.8907 -32.8559 -32.8288 -32.8261 -32.8023 -32.7896 -32.7869
   -12.7082 -12.5689 -11.5845 -11.4621 -11.3404 -11.2586 -10.9045 -10.8797
   -10.7566 -10.6986   0.4742   0.5406   0.5575   0.6517   0.8312   1.3934
     2.0365   2.1063   2.2049   2.4471   2.6678   2.6957   2.9234   2.9293
     3.0742   3.0871   3.1133   3.1347   3.2472   3.2612   3.3022   3.3819
     3.6614   3.9443   3.9736   4.0316   4.0351   4.2249   4.3613   4.3988

          k = 0.0000 0.2814 0.0000 ( 10096 PWs)   bands (ev):

   -58.9778 -58.9765 -58.9652 -58.9635 -33.0173 -33.0143 -33.0115 -33.0050
   -32.9462 -32.8898 -32.8558 -32.8283 -32.8256 -32.8022 -32.7895 -32.7868
   -12.5765 -12.4540 -11.4628 -11.4043 -11.3297 -11.2284 -10.8759 -10.8529
   -10.6410 -10.6229   0.4041   0.4577   0.4748   0.5814   0.6004   0.7369
     1.0696   1.2084   1.3547   1.4203   1.8741   2.1819   2.2410   2.6694
     2.7366   2.9802   3.1354   3.2659   3.4870   3.5727   3.7439   3.8004
     4.0342   4.0657   4.1467   4.2552   4.2688   4.6339   4.6769   4.9108

          k = 0.3333 0.0000 0.0000 ( 10063 PWs)   bands (ev):

   -58.9726 -58.9713 -58.9662 -58.9643 -33.0052 -33.0028 -32.9997 -32.9949
   -32.9439 -32.9145 -32.9013 -32.8913 -32.8360 -32.8313 -32.8142 -32.8015
   -12.0972 -11.9297 -11.4569 -11.2479 -11.2413 -11.1984 -10.8500 -10.8475
   -10.8173 -10.7485  -0.0681   0.0074   0.7579   0.7888   0.9379   1.2688
     1.3748   1.8385   1.8613   2.1800   2.1919   2.2633   2.6674   2.7114
     2.7408   2.9317   2.9727   3.0037   3.3162   3.3241   3.3283   3.4591
     3.5616   3.8454   3.9742   4.0303   4.0795   4.2358   4.4619   4.6398

          k = 0.3333 0.2814 0.0000 ( 10064 PWs)   bands (ev):

   -58.9731 -58.9705 -58.9662 -58.9643 -33.0115 -33.0090 -33.0073 -33.0024
   -32.9431 -32.9139 -32.9005 -32.8906 -32.8359 -32.8312 -32.8142 -32.8015
   -11.9796 -11.8383 -11.3786 -11.2397 -11.2045 -11.1727 -10.7796 -10.7591
   -10.6672 -10.6579  -0.0753   0.0048   0.6499   0.6619   0.7359   0.8688
     1.0762   1.1825   1.2020   1.4016   1.4337   1.8714   2.0046   2.1808
     2.2734   2.3396   2.4432   2.5361   2.7886   3.2857   3.5488   3.7521
     3.9744   4.0901   4.5738   4.6968   4.7428   4.8632   4.8797   4.9187

     highest occupied level (ev):     4.9187

!    total energy              =    -922.06315890 Ry
     Harris-Foulkes estimate   =    -922.06315890 Ry
     estimated scf accuracy    <          4.7E-13 Ry

     The total energy is the sum of the following terms:

     one-electron contribution =    -542.99782400 Ry
     hartree contribution      =     314.92734832 Ry
     xc contribution           =    -174.33179834 Ry
     ewald contribution        =    -519.51991645 Ry
     Dispersion Correction     =      -0.14096844 Ry

     convergence has been achieved in  46 iterations

     Forces acting on atoms (cartesian axes, Ry/au):

     atom    1 type  1   force =     0.00000000   -0.00040857    0.00003656
     atom    2 type  1   force =     0.00000000    0.00040857   -0.00003656
     atom    3 type  1   force =     0.00000000    0.00040857    0.00003656
     atom    4 type  1   force =    -0.00000000   -0.00040857   -0.00003656
     atom    5 type  2   force =    -0.00000000   -0.00006484    0.00001639
     atom    6 type  2   force =     0.00000000    0.00006484   -0.00001639
     atom    7 type  2   force =     0.00000000    0.00006484    0.00001639
     atom    8 type  2   force =    -0.00000000   -0.00006484   -0.00001639
     atom    9 type  2   force =    -0.00000000    0.00036187    0.00007024
     atom   10 type  2   force =     0.00000000   -0.00036187   -0.00007024
     atom   11 type  2   force =     0.00000000   -0.00036187    0.00007024
     atom   12 type  2   force =     0.00000000   -0.00007485   -0.00000000
     atom   13 type  2   force =     0.00000000    0.00007485    0.00000000
     atom   14 type  2   force =     0.00000000    0.00036187   -0.00007024

     Total force =     0.001116     Total SCF correction =     0.000003


     Computing stress (Cartesian axis) and pressure

          total   stress  (Ry/bohr**3)                   (kbar)     P=   -9.78
  -0.00003540   0.00000000   0.00000000         -5.21      0.00      0.00
   0.00000000  -0.00014030   0.00000000          0.00    -20.64      0.00
   0.00000000   0.00000000  -0.00002369          0.00      0.00     -3.48


     Writing output data file v2o5.save/

     init_run     :      0.84s CPU      0.85s WALL (       2 calls)
     electrons    :    338.49s CPU    347.25s WALL (      33 calls)
     update_pot   :      9.26s CPU      9.27s WALL (      31 calls)
     forces       :      9.70s CPU      9.76s WALL (      33 calls)
     stress       :     15.52s CPU     15.54s WALL (      33 calls)

     Called by init_run:
     wfcinit      :      0.36s CPU      0.37s WALL (       2 calls)
     potinit      :      0.15s CPU      0.15s WALL (       2 calls)
     hinit0       :      0.29s CPU      0.30s WALL (       2 calls)

     Called by electrons:
     c_bands      :    316.98s CPU    325.00s WALL (     715 calls)
     sum_band     :     16.53s CPU     17.17s WALL (     715 calls)
     v_of_rho     :      2.13s CPU      2.15s WALL (     730 calls)
     mix_rho      :      1.12s CPU      1.14s WALL (     715 calls)

     Called by c_bands:
     init_us_2    :      1.59s CPU      1.80s WALL (    5992 calls)
     cegterg      :    310.08s CPU    317.09s WALL (    2860 calls)

     Called by sum_band:

     Called by *egterg:
     h_psi        :    151.57s CPU    155.30s WALL (   12319 calls)
     g_psi        :      0.56s CPU      0.56s WALL (    9451 calls)
     cdiaghg      :     77.09s CPU     79.05s WALL (   12115 calls)

     Called by h_psi:
     h_psi:pot    :    150.58s CPU    154.22s WALL (   12319 calls)
     h_psi:calbec :     39.97s CPU     41.30s WALL (   12319 calls)
     vloc_psi     :     81.81s CPU     83.96s WALL (   12319 calls)
     add_vuspsi   :     28.77s CPU     28.94s WALL (   12319 calls)

     General routines
     calbec       :     43.61s CPU     45.01s WALL (   12979 calls)
     fft          :      2.13s CPU      2.14s WALL (    8141 calls)
     ffts         :      0.12s CPU      0.12s WALL (     715 calls)
     fftw         :     90.59s CPU     93.08s WALL ( 1032642 calls)

     Parallel routines
     fft_scatt_xy :      4.96s CPU      5.09s WALL ( 1041498 calls)
     fft_scatt_yz :     51.65s CPU     53.11s WALL ( 1041498 calls)

     PWSCF        :   6m14.60s CPU   6m23.55s WALL


   This run was terminated on:  21: 7:13  18May2024            

=------------------------------------------------------------------------------=
   JOB DONE.
=------------------------------------------------------------------------------=
