
     Program PWSCF v.6.4.1 starts on 12Mar2024 at  1:22:38 

     This program is part of the open-source Quantum ESPRESSO suite
     for quantum simulation of materials; please cite
         "P. Giannozzi et al., J. Phys.:Condens. Matter 21 395502 (2009);
         "P. Giannozzi et al., J. Phys.:Condens. Matter 29 465901 (2017);
          URL http://www.quantum-espresso.org", 
     in publications or presentations arising from this work. More details at
     http://www.quantum-espresso.org/quote

     Parallel version (MPI), running on    32 processors

     MPI processes distributed on     1 nodes
     R & G space division:  proc/nbgrp/npool/nimage =      32
     Reading input from interface.rlx.in

     Current dimensions of program PWSCF are:
     Max number of different atomic species (ntypx) = 10
     Max number of k-points (npk) =  40000
     Max angular momentum in pseudopotentials (lmaxx) =  3

     IMPORTANT: XC functional enforced from input :
     Exchange-correlation      = VDW-DF ( 1  4  4  0 1 0)
     Any further DFT definition will be discarded
     Please, verify this is what you really want

               file V.pbesol-spnl-kjpaw_psl.1.0.0.UPF: wavefunction(s)  3P 3D renormalized
               file O.pbesol-n-kjpaw_psl.1.0.0.UPF: wavefunction(s)  2S 2P renormalized
               file C.pbesol-n-kjpaw_psl.1.0.0.UPF: wavefunction(s)  2S 2P renormalized

     Subspace diagonalization in iterative solution of the eigenvalue problem:
     one sub-group per band group will be used
     ELPA distributed-memory algorithm (size of sub-group:  4*  4 procs)


     Parallelization info
     --------------------
     sticks:   dense  smooth     PW     G-vecs:    dense   smooth      PW
     Min         426     170     47               119505    30230    4446
     Max         427     171     48               119514    30241    4456
     Sum       13635    5445   1525              3824339   967507  142413



     bravais-lattice index     =            0
     lattice parameter (alat)  =      30.2219  a.u.
     unit-cell volume          =   28307.6739 (a.u.)^3
     number of atoms/cell      =          176
     number of atomic types    =            3
     number of electrons       =      1040.00
     number of Kohn-Sham states=          624
     kinetic-energy cutoff     =      40.0000  Ry
     charge density cutoff     =     400.0000  Ry
     convergence threshold     =      1.0E-06
     mixing beta               =       0.4000
     number of iterations used =            8  local-TF  mixing
     Exchange-correlation      = VDW-DF ( 1  4  4  0 1 0)
     nstep                     =          500


     celldm(1)=  30.221920  celldm(2)=   0.000000  celldm(3)=   0.000000
     celldm(4)=   0.000000  celldm(5)=   0.000000  celldm(6)=   0.000000

     crystal axes: (cart. coord. in units of alat)
               a(1) = (   1.000000   0.000000   0.000000 )  
               a(2) = (  -0.522247   0.468590   0.000000 )  
               a(3) = (   0.000000   0.000000   2.188492 )  

     reciprocal axes: (cart. coord. in units 2 pi/alat)
               b(1) = (  1.000000  1.114507 -0.000000 )  
               b(2) = (  0.000000  2.134061  0.000000 )  
               b(3) = (  0.000000 -0.000000  0.456936 )  


     PseudoPot. # 1 for V  read from file:
     /home/mpicuntureo/pseudos/V.pbesol-spnl-kjpaw_psl.1.0.0.UPF
     MD5 check sum: d709b3179d4cab0f72010db8785d50db
     Pseudo is Projector augmented-wave + core cor, Zval = 13.0
     Generated using "atomic" code by A. Dal Corso v.6.3
     Shape of augmentation charge: PSQ
     Using radial grid of 1181 points,  6 beta functions with: 
                l(1) =   0
                l(2) =   0
                l(3) =   1
                l(4) =   1
                l(5) =   2
                l(6) =   2
     Q(r) pseudized with 0 coefficients 


     PseudoPot. # 2 for O  read from file:
     /home/mpicuntureo/pseudos/O.pbesol-n-kjpaw_psl.1.0.0.UPF
     MD5 check sum: cb766521a97cf798d01896eaf7ac9a0a
     Pseudo is Projector augmented-wave + core cor, Zval =  6.0
     Generated using "atomic" code by A. Dal Corso v.6.3
     Shape of augmentation charge: PSQ
     Using radial grid of 1095 points,  4 beta functions with: 
                l(1) =   0
                l(2) =   0
                l(3) =   1
                l(4) =   1
     Q(r) pseudized with 0 coefficients 


     PseudoPot. # 3 for C  read from file:
     /home/mpicuntureo/pseudos/C.pbesol-n-kjpaw_psl.1.0.0.UPF
     MD5 check sum: f9b2fe17d1f478429498b05d17159f9e
     Pseudo is Projector augmented-wave + core cor, Zval =  4.0
     Generated using "atomic" code by A. Dal Corso v.6.3
     Shape of augmentation charge: PSQ
     Using radial grid of 1073 points,  4 beta functions with: 
                l(1) =   0
                l(2) =   0
                l(3) =   1
                l(4) =   1
     Q(r) pseudized with 0 coefficients 


     vdW kernel table read from file vdW_kernel_table
     MD5 check sum: 8c4337f4b28e1601c069d7ef7b6561bc

     atomic species   valence    mass     pseudopotential
        V             13.00    50.94150     V ( 1.00)
        O              6.00    15.99940     O ( 1.00)
        C              4.00    12.01100     C ( 1.00)

     No symmetry found



   Cartesian axes

     site n.     atom                  positions (alat units)
         1           V   tau(   1) = (   0.2369662   0.0851754   0.4905620  )
         2           V   tau(   2) = (   0.5543564   0.3985845   0.4917909  )
         3           V   tau(   3) = (   0.3960608   0.2426841   0.4913374  )
         4           V   tau(   4) = (  -0.2699674   0.3784192   0.5620181  )
         5           V   tau(   5) = (   0.5721302   0.2210335   0.5623071  )
         6           V   tau(   6) = (   0.4120937   0.0656310   0.5609954  )
         7           V   tau(   7) = (  -0.1106844   0.2451875   0.5617549  )
         8           V   tau(   8) = (   0.7327084   0.0883647   0.5605560  )
         9           V   tau(   9) = (   0.0508954   0.4030983   0.5616794  )
        10           V   tau(  10) = (   0.0717607   0.2201624   0.5533652  )
        11           V   tau(  11) = (   0.9100447   0.0665615   0.4920768  )
        12           V   tau(  12) = (   0.2285903   0.3781161   0.4932859  )
        13           V   tau(  13) = (   0.2325025   0.0879346   0.7689855  )
        14           V   tau(  14) = (   0.5510758   0.4003643   0.7688270  )
        15           V   tau(  15) = (   0.3916839   0.2440253   0.7687185  )
        16           V   tau(  16) = (  -0.2738305   0.3793215   0.8457827  )
        17           V   tau(  17) = (   0.5668909   0.2231498   0.8455931  )
        18           V   tau(  18) = (   0.4076726   0.0669632   0.8458837  )
        19           V   tau(  19) = (  -0.1047959   0.2429442   0.8455997  )
        20           V   tau(  20) = (   0.7359572   0.0866127   0.8459968  )
        21           V   tau(  21) = (   0.0544565   0.3989790   0.8454700  )
        22           V   tau(  22) = (   0.0702992   0.2217956   0.7685995  )
        23           V   tau(  23) = (   0.9110384   0.0656507   0.7689765  )
        24           V   tau(  24) = (   0.2296691   0.3781627   0.7686914  )
        25           O   tau(  25) = (  -0.3533285   0.4632381   0.5244590  )
        26           O   tau(  26) = (   0.4890450   0.3055385   0.5246158  )
        27           O   tau(  27) = (   0.3283095   0.1504528   0.5229755  )
        28           O   tau(  28) = (   0.3194416   0.0019866   0.5259040  )
        29           O   tau(  29) = (   0.6391806   0.3139455   0.5293879  )
        30           O   tau(  30) = (   0.4794940   0.1571435   0.5287462  )
        31           O   tau(  31) = (  -0.0132284   0.3062491   0.5321309  )
        32           O   tau(  32) = (   0.8260636   0.1520510   0.5276416  )
        33           O   tau(  33) = (   0.1438445   0.4640940   0.5274313  )
        34           O   tau(  34) = (  -0.0217626   0.1600587   0.5283449  )
        35           O   tau(  35) = (   0.8166382   0.0035439   0.5213654  )
        36           O   tau(  36) = (   0.1348107   0.3141238   0.5300480  )
        37           O   tau(  37) = (   0.9102994   0.0708961   0.3924197  )
        38           O   tau(  38) = (   0.2234660   0.3769519   0.3937735  )
        39           O   tau(  39) = (  -0.1152278   0.2503439   0.6613008  )
        40           O   tau(  40) = (   0.7279102   0.0940450   0.6598546  )
        41           O   tau(  41) = (   0.0458771   0.4090174   0.6611412  )
        42           O   tau(  42) = (  -0.2639337   0.3731292   0.6612337  )
        43           O   tau(  43) = (   0.5771164   0.2144957   0.6615201  )
        44           O   tau(  44) = (   0.4161952   0.0586336   0.6602102  )
        45           O   tau(  45) = (  -0.1883589   0.3124459   0.5212168  )
        46           O   tau(  46) = (   0.6526516   0.1549960   0.5210938  )
        47           O   tau(  47) = (   0.4917142  -0.0022357   0.5204174  )
        48           O   tau(  48) = (   0.1485782   0.1561242   0.5188132  )
        49           O   tau(  49) = (   0.9928048  -0.0014709   0.5182714  )
        50           O   tau(  50) = (   0.3120125   0.3108313   0.5185772  )
        51           O   tau(  51) = (   0.2362412   0.0858279   0.3911249  )
        52           O   tau(  52) = (   0.5565577   0.3970641   0.3921412  )
        53           O   tau(  53) = (   0.3989679   0.2424867   0.3916820  )
        54           O   tau(  54) = (  -0.3565810   0.4636156   0.8012034  )
        55           O   tau(  55) = (   0.4841918   0.3073107   0.8005197  )
        56           O   tau(  56) = (   0.3248773   0.1511856   0.8012010  )
        57           O   tau(  57) = (   0.3139464   0.0045570   0.8126605  )
        58           O   tau(  58) = (   0.6324404   0.3169630   0.8124035  )
        59           O   tau(  59) = (   0.4731592   0.1607095   0.8123933  )
        60           O   tau(  60) = (  -0.0111363   0.3052774   0.8119928  )
        61           O   tau(  61) = (   0.8296559   0.1490236   0.8127146  )
        62           O   tau(  62) = (   0.1482289   0.4614648   0.8124908  )
        63           O   tau(  63) = (  -0.0220847   0.1586144   0.8009513  )
        64           O   tau(  64) = (   0.8187249   0.0023951   0.8012705  )
        65           O   tau(  65) = (   0.1371569   0.3148538   0.8003555  )
        66           O   tau(  66) = (   0.0726588   0.2181978   0.6688811  )
        67           O   tau(  67) = (   0.9131656   0.0623925   0.6692692  )
        68           O   tau(  68) = (   0.2324074   0.3752847   0.6689753  )
        69           O   tau(  69) = (  -0.0992602   0.2386961   0.9444906  )
        70           O   tau(  70) = (   0.7412534   0.0820237   0.9448876  )
        71           O   tau(  71) = (   0.0598981   0.3940172   0.9443349  )
        72           O   tau(  72) = (  -0.2791364   0.3836440   0.9446812  )
        73           O   tau(  73) = (   0.5613292   0.2279103   0.9444599  )
        74           O   tau(  74) = (   0.4023831   0.0715654   0.9447711  )
        75           O   tau(  75) = (  -0.1893586   0.3110922   0.8220318  )
        76           O   tau(  76) = (   0.6514962   0.1548984   0.8223728  )
        77           O   tau(  77) = (  -0.0300476   0.4673268   0.8222934  )
        78           O   tau(  78) = (   0.1513737   0.1549615   0.8058265  )
        79           O   tau(  79) = (   0.4699641   0.4672584   0.8058426  )
        80           O   tau(  80) = (   0.3106791   0.3110950   0.8056847  )
        81           O   tau(  81) = (   0.2302141   0.0910576   0.6692862  )
        82           O   tau(  82) = (   0.5489889   0.4037633   0.6691119  )
        83           O   tau(  83) = (   0.3889933   0.2468491   0.6689980  )
        84           O   tau(  84) = (   0.0957781   0.2631259   0.3236059  )
        85           C   tau(  85) = (  -0.1142184   0.3941297   0.2209177  )
        86           C   tau(  86) = (   0.1639269   0.0272164   0.2156339  )
        87           C   tau(  87) = (   0.0711863   0.1470603   0.2258980  )
        88           C   tau(  88) = (   0.0129471   0.0064510   0.2121665  )
        89           C   tau(  89) = (  -0.0234066   0.2722680   0.2286897  )
        90           C   tau(  90) = (  -0.0801301   0.1290127   0.2164898  )
        91           C   tau(  91) = (   0.3392980   0.4548993   0.2127162  )
        92           C   tau(  92) = (  -0.1728775   0.2517789   0.2165117  )
        93           C   tau(  93) = (   0.7690828   0.1092774   0.2147487  )
        94           C   tau(  94) = (   0.1882457   0.4354285   0.2197135  )
        95           C   tau(  95) = (  -0.2654549   0.3740084   0.2153604  )
        96           C   tau(  96) = (   0.6760163   0.2312844   0.2149798  )
        97           C   tau(  97) = (   0.6178266   0.0886939   0.2186945  )
        98           C   tau(  98) = (   0.0378087   0.4148523   0.2280064  )
        99           C   tau(  99) = (   0.5834489   0.3532014   0.2118739  )
       100           C   tau( 100) = (   0.5250715   0.2107782   0.2140097  )
       101           C   tau( 101) = (   0.4666368   0.0682791   0.2185609  )
       102           C   tau( 102) = (   0.4322749   0.3327715   0.2101821  )
       103           C   tau( 103) = (   0.3737891   0.1901893   0.2129446  )
       104           C   tau( 104) = (   0.3154793   0.0477545   0.2161331  )
       105           C   tau( 105) = (   0.2814647   0.3123174   0.2160042  )
       106           C   tau( 106) = (   0.2229657   0.1704296   0.2220661  )
       107           C   tau( 107) = (   0.1323683   0.2936885   0.2456955  )
       108           C   tau( 108) = (  -0.2767203   0.4618468   0.2155548  )
       109           C   tau( 109) = (   0.1522588   0.1151103   0.2222942  )
       110           C   tau( 110) = (  -0.4278732   0.4413871   0.2124806  )
       111           C   tau( 111) = (   0.0580566   0.2354878   0.2450151  )
       112           C   tau( 112) = (   0.0017308   0.0944154   0.2170703  )
       113           C   tau( 113) = (   0.4208633   0.4206776   0.2109427  )
       114           C   tau( 114) = (  -0.0915412   0.2175548   0.2194123  )
       115           C   tau( 115) = (   0.8506033   0.0750579   0.2137369  )
       116           C   tau( 116) = (   0.2700839   0.4009020   0.2160040  )
       117           C   tau( 117) = (  -0.1839206   0.3398238   0.2177155  )
       118           C   tau( 118) = (   0.7575488   0.1972010   0.2151486  )
       119           C   tau( 119) = (   0.6992405   0.0548773   0.2170403  )
       120           C   tau( 120) = (  -0.3352672   0.3193416   0.2139835  )
       121           C   tau( 121) = (   0.6063826   0.1768670   0.2159816  )
       122           C   tau( 122) = (   0.5481901   0.0342294   0.2217394  )
       123           C   tau( 123) = (   0.5138401   0.2987945   0.2114094  )
       124           C   tau( 124) = (   0.4553120   0.1560754   0.2146041  )
       125           C   tau( 125) = (   0.3966754   0.0137222   0.2184847  )
       126           C   tau( 126) = (   0.3626984   0.2782094   0.2111814  )
       127           C   tau( 127) = (   0.3041720   0.1359416   0.2157287  )
       128           C   tau( 128) = (   0.2134327   0.2575504   0.2258173  )
       129           C   tau( 129) = (   0.1189282   0.3827005   0.2295090  )
       130           C   tau( 130) = (  -0.0330063   0.3595204   0.2275063  )
       131           C   tau( 131) = (   0.2392793   0.0735151   0.0036225  )
       132           C   tau( 132) = (  -0.0046853   0.1753722   0.0033987  )
       133           C   tau( 133) = (  -0.0974521   0.2976166   0.0050610  )
       134           C   tau( 134) = (  -0.1558987   0.1549970   0.0044484  )
       135           C   tau( 135) = (  -0.1902157   0.4198619   0.0052081  )
       136           C   tau( 136) = (  -0.2486605   0.2772454   0.0054535  )
       137           C   tau( 137) = (   0.6928925   0.1346327   0.0053067  )
       138           C   tau( 138) = (  -0.3414218   0.3994928   0.0043428  )
       139           C   tau( 139) = (   0.6001313   0.2568742   0.0050199  )
       140           C   tau( 140) = (   0.5416822   0.1142608   0.0053905  )
       141           C   tau( 141) = (   0.0880737   0.0531410   0.0029181  )
       142           C   tau( 142) = (   0.5073788   0.3791151   0.0033519  )
       143           C   tau( 143) = (   0.4489277   0.2364951   0.0040049  )
       144           C   tau( 144) = (   0.3904760   0.0938923   0.0046640  )
       145           C   tau( 145) = (   0.9368664   0.0327632   0.0029695  )
       146           C   tau( 146) = (   0.3561736   0.3587417   0.0028596  )
       147           C   tau( 147) = (   0.2977273   0.2161214   0.0030791  )
       148           C   tau( 148) = (   0.7856602   0.0123849   0.0037320  )
       149           C   tau( 149) = (   0.2049692   0.3383661   0.0031253  )
       150           C   tau( 150) = (   0.1465177   0.1957511   0.0028386  )
       151           C   tau( 151) = (   0.1122044   0.4606027   0.0047714  )
       152           C   tau( 152) = (   0.0537541   0.3179868   0.0040646  )
       153           C   tau( 153) = (  -0.0390008   0.4402315   0.0053986  )
       154           C   tau( 154) = (   0.0767125   0.1412918   0.0029025  )
       155           C   tau( 155) = (  -0.0160446   0.2635267   0.0042056  )
       156           C   tau( 156) = (  -0.0744916   0.1209104   0.0035548  )
       157           C   tau( 157) = (  -0.1088163   0.3857677   0.0054510  )
       158           C   tau( 158) = (  -0.1672624   0.2431502   0.0051703  )
       159           C   tau( 159) = (   0.7742987   0.1005341   0.0046076  )
       160           C   tau( 160) = (  -0.2600186   0.3654016   0.0051679  )
       161           C   tau( 161) = (   0.6815276   0.2227829   0.0054823  )
       162           C   tau( 162) = (   0.6230866   0.0801569   0.0053855  )
       163           C   tau( 163) = (   0.1694752   0.0190522   0.0035694  )
       164           C   tau( 164) = (   0.5887732   0.3450252   0.0042687  )
       165           C   tau( 165) = (   0.5303207   0.2024204   0.0049373  )
       166           C   tau( 166) = (  -0.5039731   0.4672744   0.0029347  )
       167           C   tau( 167) = (   0.4375794   0.3246495   0.0032919  )
       168           C   tau( 168) = (   0.3791238   0.1820402   0.0038870  )
       169           C   tau( 169) = (   0.3448174   0.4468978   0.0030656  )
       170           C   tau( 170) = (   0.2863724   0.3042763   0.0028493  )
       171           C   tau( 171) = (   0.2279286   0.1616659   0.0030407  )
       172           C   tau( 172) = (   0.1936091   0.4265169   0.0038764  )
       173           C   tau( 173) = (   0.1351635   0.2838973   0.0032325  )
       174           C   tau( 174) = (   0.0423951   0.4061403   0.0048951  )
       175           C   tau( 175) = (   0.4718806   0.0598007   0.0053706  )
       176           C   tau( 176) = (   0.3206685   0.0394311   0.0045875  )

     number of k points=     4  gaussian smearing, width (Ry)=  0.1000
                       cart. coord. in units 2pi/alat
        k(    1) = (   0.0000000   0.0000000   0.0000000), wk =   0.5000000
        k(    2) = (   0.0000000  -1.0670305   0.0000000), wk =   0.5000000
        k(    3) = (  -0.5000000  -0.5572533   0.0000000), wk =   0.5000000
        k(    4) = (  -0.5000000  -1.6242837   0.0000000), wk =   0.5000000

     Dense  grid:  3824339 G-vectors     FFT dimensions: ( 200, 135, 432)

     Smooth grid:   967507 G-vectors     FFT dimensions: ( 125,  90, 270)

     Estimated max dynamical RAM per process >       1.64 GB

     Estimated total dynamical RAM >      52.51 GB

     Check: negative core charge=   -0.000004

     Initial potential from superposition of free atoms

     starting charge 1039.97582, renormalised to 1040.00000

     negative rho (up, down):  3.630E-03 0.000E+00


     %%%%%%%%%%%%%%%%%%%%%%%%%%%%%%%%%%%%%%%%%%%%%%%%%%%%%%%%%%%%%%%%%%%%%%%%
     %                                                                      %
     % You are using vdW-DF, which was implemented by the Thonhauser group. %
     % Please cite the following two papers that made this development      %
     % possible and the two reviews that describe the various versions:     %
     %                                                                      %
     %   T. Thonhauser et al., PRL 115, 136402 (2015).                      %
     %   T. Thonhauser et al., PRB 76, 125112 (2007).                       %
     %   K. Berland et al., Rep. Prog. Phys. 78, 066501 (2015).             %
     %   D.C. Langreth et al., J. Phys.: Condens. Matter 21, 084203 (2009). %
     %                                                                      %
     %                                                                      %
     % If you are calculating the stress with vdW-DF, please also cite:     %
     %                                                                      %
     %   R. Sabatini et al., J. Phys.: Condens. Matter 24, 424209 (2012).   %
     %                                                                      %
     %%%%%%%%%%%%%%%%%%%%%%%%%%%%%%%%%%%%%%%%%%%%%%%%%%%%%%%%%%%%%%%%%%%%%%%%


     Starting wfcs are  848 randomized atomic wfcs
     Checking if some PAW data can be deallocated... 

     total cpu time spent up to now is      896.3 secs

     Self-consistent Calculation

     iteration #  1     ecut=    40.00 Ry     beta= 0.40
     Davidson diagonalization with overlap
     ethr =  1.00E-02,  avg # of iterations =  2.2

     negative rho (up, down):  5.323E-03 0.000E+00

     total cpu time spent up to now is     3319.8 secs

     total energy              =   -9446.26274928 Ry
     Harris-Foulkes estimate   =   -9463.68726486 Ry
     estimated scf accuracy    <      69.31670785 Ry

     iteration #  2     ecut=    40.00 Ry     beta= 0.40
     Davidson diagonalization with overlap
     ethr =  6.67E-03,  avg # of iterations =  1.0

     negative rho (up, down):  9.172E-03 0.000E+00

     total cpu time spent up to now is     4993.4 secs

     total energy              =   -9446.63099289 Ry
     Harris-Foulkes estimate   =   -9450.32167716 Ry
     estimated scf accuracy    <      15.07463104 Ry

     iteration #  3     ecut=    40.00 Ry     beta= 0.40
     Davidson diagonalization with overlap
     ethr =  1.45E-03,  avg # of iterations =  5.5

     negative rho (up, down):  1.855E-02 0.000E+00

     total cpu time spent up to now is     7875.3 secs

     total energy              =   -9447.77627680 Ry
     Harris-Foulkes estimate   =   -9451.84868602 Ry
     estimated scf accuracy    <      19.13067067 Ry

     iteration #  4     ecut=    40.00 Ry     beta= 0.40
     Davidson diagonalization with overlap
     ethr =  1.45E-03,  avg # of iterations =  2.5

     negative rho (up, down):  3.965E-02 0.000E+00

     total cpu time spent up to now is     9637.6 secs

     total energy              =   -9449.49071546 Ry
     Harris-Foulkes estimate   =   -9451.34346055 Ry
     estimated scf accuracy    <       6.79606998 Ry

     iteration #  5     ecut=    40.00 Ry     beta= 0.40
     Davidson diagonalization with overlap
     ethr =  6.53E-04,  avg # of iterations =  4.2

     negative rho (up, down):  4.992E-02 0.000E+00

     total cpu time spent up to now is    11399.5 secs

     total energy              =   -9449.99860959 Ry
     Harris-Foulkes estimate   =   -9450.01960156 Ry
     estimated scf accuracy    <       2.17503787 Ry

     iteration #  6     ecut=    40.00 Ry     beta= 0.40
     Davidson diagonalization with overlap
     ethr =  2.09E-04,  avg # of iterations =  4.0

     negative rho (up, down):  3.337E-02 0.000E+00

     total cpu time spent up to now is    13594.4 secs

     total energy              =   -9450.10871462 Ry
     Harris-Foulkes estimate   =   -9450.42921934 Ry
     estimated scf accuracy    <       5.27092734 Ry

     iteration #  7     ecut=    40.00 Ry     beta= 0.40
     Davidson diagonalization with overlap
     ethr =  2.09E-04,  avg # of iterations =  1.0

     negative rho (up, down):  1.114E-02 0.000E+00

     total cpu time spent up to now is    15266.0 secs

     total energy              =   -9449.54059662 Ry
     Harris-Foulkes estimate   =   -9450.13680939 Ry
     estimated scf accuracy    <       3.71478255 Ry

     iteration #  8     ecut=    40.00 Ry     beta= 0.40
     Davidson diagonalization with overlap
     ethr =  2.09E-04,  avg # of iterations =  3.0

     negative rho (up, down):  1.582E-02 0.000E+00

     total cpu time spent up to now is    17027.1 secs

     total energy              =   -9449.60846314 Ry
     Harris-Foulkes estimate   =   -9449.73194235 Ry
     estimated scf accuracy    <       0.72230547 Ry

     iteration #  9     ecut=    40.00 Ry     beta= 0.40
     Davidson diagonalization with overlap
     c_bands:  3 eigenvalues not converged
     ethr =  6.95E-05,  avg # of iterations =  8.2

     negative rho (up, down):  1.433E-02 0.000E+00

     total cpu time spent up to now is    19293.8 secs

     total energy              =   -9449.71949131 Ry
     Harris-Foulkes estimate   =   -9449.74202853 Ry
     estimated scf accuracy    <       0.18865602 Ry

     iteration # 10     ecut=    40.00 Ry     beta= 0.40
     Davidson diagonalization with overlap
     c_bands:  2 eigenvalues not converged
     ethr =  1.81E-05,  avg # of iterations = 14.8

     negative rho (up, down):  3.122E-02 0.000E+00

     total cpu time spent up to now is    21657.1 secs

     total energy              =   -9449.70023408 Ry
     Harris-Foulkes estimate   =   -9449.72645223 Ry
     estimated scf accuracy    <       0.11845984 Ry

     iteration # 11     ecut=    40.00 Ry     beta= 0.40
     Davidson diagonalization with overlap
     c_bands:  2 eigenvalues not converged
     ethr =  1.14E-05,  avg # of iterations = 15.8

     negative rho (up, down):  3.678E-02 0.000E+00

     total cpu time spent up to now is    25348.9 secs

     total energy              =   -9449.63536834 Ry
     Harris-Foulkes estimate   =   -9449.78927969 Ry
     estimated scf accuracy    <       0.60738517 Ry

     iteration # 12     ecut=    40.00 Ry     beta= 0.40
     Davidson diagonalization with overlap
     ethr =  1.14E-05,  avg # of iterations =  4.8

     negative rho (up, down):  3.230E-02 0.000E+00

     total cpu time spent up to now is    28194.8 secs

     total energy              =   -9449.71024546 Ry
     Harris-Foulkes estimate   =   -9449.71801987 Ry
     estimated scf accuracy    <       0.07139334 Ry

     iteration # 13     ecut=    40.00 Ry     beta= 0.40
     Davidson diagonalization with overlap
     ethr =  6.86E-06,  avg # of iterations =  1.8

     negative rho (up, down):  3.784E-02 0.000E+00

     total cpu time spent up to now is    29880.2 secs

     total energy              =   -9449.70816214 Ry
     Harris-Foulkes estimate   =   -9449.71204332 Ry
     estimated scf accuracy    <       0.03809843 Ry

     iteration # 14     ecut=    40.00 Ry     beta= 0.40
     Davidson diagonalization with overlap
     ethr =  3.66E-06,  avg # of iterations =  5.5

     negative rho (up, down):  3.052E-02 0.000E+00

     total cpu time spent up to now is    31646.1 secs

     total energy              =   -9449.70826613 Ry
     Harris-Foulkes estimate   =   -9449.71002556 Ry
     estimated scf accuracy    <       0.02580497 Ry

     iteration # 15     ecut=    40.00 Ry     beta= 0.40
     Davidson diagonalization with overlap
     ethr =  2.48E-06,  avg # of iterations =  9.8

     negative rho (up, down):  2.300E-02 0.000E+00

     total cpu time spent up to now is    33510.4 secs

     total energy              =   -9449.70826559 Ry
     Harris-Foulkes estimate   =   -9449.70903942 Ry
     estimated scf accuracy    <       0.01927651 Ry

     iteration # 16     ecut=    40.00 Ry     beta= 0.40
     Davidson diagonalization with overlap
     ethr =  1.85E-06,  avg # of iterations =  6.5

     negative rho (up, down):  2.484E-02 0.000E+00

     total cpu time spent up to now is    35263.3 secs

     total energy              =   -9449.70620387 Ry
     Harris-Foulkes estimate   =   -9449.70858905 Ry
     estimated scf accuracy    <       0.01348507 Ry

     iteration # 17     ecut=    40.00 Ry     beta= 0.40
     Davidson diagonalization with overlap
     c_bands:  1 eigenvalues not converged
     ethr =  1.30E-06,  avg # of iterations = 15.2

     negative rho (up, down):  2.892E-02 0.000E+00

     total cpu time spent up to now is    37239.5 secs

     total energy              =   -9449.70579678 Ry
     Harris-Foulkes estimate   =   -9449.70662472 Ry
     estimated scf accuracy    <       0.00747409 Ry

     iteration # 18     ecut=    40.00 Ry     beta= 0.40
     Davidson diagonalization with overlap
     ethr =  7.19E-07,  avg # of iterations =  4.0

     negative rho (up, down):  3.024E-02 0.000E+00

     total cpu time spent up to now is    38985.5 secs

     total energy              =   -9449.70577786 Ry
     Harris-Foulkes estimate   =   -9449.70602729 Ry
     estimated scf accuracy    <       0.00481677 Ry

     iteration # 19     ecut=    40.00 Ry     beta= 0.40
     Davidson diagonalization with overlap
     ethr =  4.63E-07,  avg # of iterations =  2.2

     negative rho (up, down):  4.182E-02 0.000E+00

     total cpu time spent up to now is    40652.4 secs

     total energy              =   -9449.70517735 Ry
     Harris-Foulkes estimate   =   -9449.70586218 Ry
     estimated scf accuracy    <       0.00354827 Ry

     iteration # 20     ecut=    40.00 Ry     beta= 0.40
     Davidson diagonalization with overlap
     ethr =  3.41E-07,  avg # of iterations =  4.0

     negative rho (up, down):  5.623E-02 0.000E+00

     total cpu time spent up to now is    42378.7 secs

     total energy              =   -9449.70510125 Ry
     Harris-Foulkes estimate   =   -9449.70527753 Ry
     estimated scf accuracy    <       0.00190369 Ry

     iteration # 21     ecut=    40.00 Ry     beta= 0.40
     Davidson diagonalization with overlap
     ethr =  1.83E-07,  avg # of iterations =  4.0

     negative rho (up, down):  6.217E-02 0.000E+00

     total cpu time spent up to now is    44102.4 secs

     total energy              =   -9449.70524034 Ry
     Harris-Foulkes estimate   =   -9449.70517043 Ry
     estimated scf accuracy    <       0.00104901 Ry

     iteration # 22     ecut=    40.00 Ry     beta= 0.40
     Davidson diagonalization with overlap
     ethr =  1.01E-07,  avg # of iterations =  3.2

     negative rho (up, down):  6.436E-02 0.000E+00

     total cpu time spent up to now is    45839.1 secs

     total energy              =   -9449.70533512 Ry
     Harris-Foulkes estimate   =   -9449.70528140 Ry
     estimated scf accuracy    <       0.00064057 Ry

     iteration # 23     ecut=    40.00 Ry     beta= 0.40
     Davidson diagonalization with overlap
     ethr =  6.16E-08,  avg # of iterations =  4.2

     negative rho (up, down):  6.475E-02 0.000E+00

     total cpu time spent up to now is    47571.0 secs

     total energy              =   -9449.70532509 Ry
     Harris-Foulkes estimate   =   -9449.70535818 Ry
     estimated scf accuracy    <       0.00042762 Ry

     iteration # 24     ecut=    40.00 Ry     beta= 0.40
     Davidson diagonalization with overlap
     ethr =  4.11E-08,  avg # of iterations =  4.5

     negative rho (up, down):  6.366E-02 0.000E+00

     total cpu time spent up to now is    49290.4 secs

     total energy              =   -9449.70526648 Ry
     Harris-Foulkes estimate   =   -9449.70534154 Ry
     estimated scf accuracy    <       0.00023263 Ry

     iteration # 25     ecut=    40.00 Ry     beta= 0.40
     Davidson diagonalization with overlap
     ethr =  2.24E-08,  avg # of iterations =  4.8

     negative rho (up, down):  6.162E-02 0.000E+00

     total cpu time spent up to now is    51069.7 secs

     total energy              =   -9449.70522455 Ry
     Harris-Foulkes estimate   =   -9449.70527687 Ry
     estimated scf accuracy    <       0.00010172 Ry

     iteration # 26     ecut=    40.00 Ry     beta= 0.40
     Davidson diagonalization with overlap
     ethr =  9.78E-09,  avg # of iterations =  5.2

     negative rho (up, down):  6.041E-02 0.000E+00

     total cpu time spent up to now is    53207.8 secs

     total energy              =   -9449.70523170 Ry
     Harris-Foulkes estimate   =   -9449.70523664 Ry
     estimated scf accuracy    <       0.00001920 Ry

     iteration # 27     ecut=    40.00 Ry     beta= 0.40
     Davidson diagonalization with overlap
     ethr =  1.85E-09,  avg # of iterations =  3.2

     negative rho (up, down):  5.992E-02 0.000E+00

     total cpu time spent up to now is    55022.8 secs

     total energy              =   -9449.70523189 Ry
     Harris-Foulkes estimate   =   -9449.70523312 Ry
     estimated scf accuracy    <       0.00000890 Ry

     iteration # 28     ecut=    40.00 Ry     beta= 0.40
     Davidson diagonalization with overlap
     ethr =  8.56E-10,  avg # of iterations =  4.2

     negative rho (up, down):  5.939E-02 0.000E+00

     total cpu time spent up to now is    56824.0 secs

     total energy              =   -9449.70523236 Ry
     Harris-Foulkes estimate   =   -9449.70523248 Ry
     estimated scf accuracy    <       0.00000443 Ry

     iteration # 29     ecut=    40.00 Ry     beta= 0.40
     Davidson diagonalization with overlap
     ethr =  4.26E-10,  avg # of iterations =  5.5

     negative rho (up, down):  5.887E-02 0.000E+00

     total cpu time spent up to now is    58657.9 secs

     total energy              =   -9449.70523356 Ry
     Harris-Foulkes estimate   =   -9449.70523271 Ry
     estimated scf accuracy    <       0.00000147 Ry

     iteration # 30     ecut=    40.00 Ry     beta= 0.40
     Davidson diagonalization with overlap
     ethr =  1.41E-10,  avg # of iterations =  5.0

     negative rho (up, down):  5.859E-02 0.000E+00

     total cpu time spent up to now is    61007.3 secs

     End of self-consistent calculation

          k = 0.0000 0.0000 0.0000 (121045 PWs)   bands (ev):

   -66.2120 -66.1974 -65.9149 -65.8682 -65.8631 -65.8434 -65.8413 -65.8278
   -65.8189 -65.8156 -65.8146 -65.8132 -65.8109 -65.8040 -65.7906 -65.7860
   -65.7637 -65.7589 -65.6713 -65.6696 -65.6534 -65.6530 -65.6518 -65.6487
   -40.4177 -40.1476 -40.0225 -40.0025 -39.9789 -39.9677 -39.9145 -39.9001
   -39.8941 -39.8819 -39.8783 -39.8736 -39.8648 -39.8629 -39.8589 -39.8566
   -39.8552 -39.8485 -39.8284 -39.8226 -39.7955 -39.7890 -39.7360 -39.7316
   -39.7275 -39.7135 -39.7030 -39.6867 -39.6846 -39.6803 -39.6777 -39.6768
   -39.6731 -39.6689 -39.6683 -39.6665 -39.6644 -39.6528 -39.6409 -39.6365
   -39.6327 -39.6308 -39.6215 -39.6169 -39.6076 -39.6065 -39.6049 -39.6007
   -39.5959 -39.5882 -39.5841 -39.5829 -39.5759 -39.5746 -39.5712 -39.5700
   -39.5674 -39.5655 -39.5600 -39.5329 -39.5179 -39.5109 -39.4953 -39.4742
   -39.4671 -39.4642 -39.4589 -39.4517 -39.4466 -39.4422 -39.4270 -39.4137
   -23.4179 -20.1185 -19.8234 -19.7402 -19.5862 -19.5207 -19.4190 -19.3448
   -19.2727 -19.2657 -19.1899 -19.1830 -19.1363 -19.1032 -19.0638 -19.0014
   -18.9924 -18.9836 -18.9624 -18.9581 -18.9406 -18.8181 -18.8077 -18.7343
   -18.6446 -18.6163 -18.5248 -18.4878 -18.4750 -18.4565 -18.4461 -18.4310
   -18.4235 -18.4023 -18.3988 -18.3594 -18.3481 -18.3256 -18.3081 -18.2938
   -18.2526 -18.2510 -18.2494 -18.2449 -18.2360 -18.2150 -18.2066 -18.2018
   -18.1945 -18.1900 -18.1666 -18.1129 -18.0689 -18.0641 -18.0367 -17.8492
   -17.8038 -17.7688 -17.7569 -17.7529 -17.7435 -17.7261 -17.7163 -17.7047
   -17.6928 -17.6812 -17.6621 -17.6540 -17.6386 -17.6250 -17.6009 -17.5791
   -17.4144 -17.3975 -17.3929 -17.3794 -17.3737 -17.3704 -16.7820 -16.7753
   -16.5869 -16.4785 -16.4657 -16.4455 -16.3045 -16.1786 -16.1088 -16.0975
   -15.9079 -15.8819 -15.8808 -15.8365 -15.7212 -15.7150 -15.7125 -15.6270
   -15.5258 -15.4842 -15.4821 -15.3758 -15.2984 -14.8126 -13.9113 -13.9076
   -13.7594 -13.5741 -12.8574 -12.8557 -12.7265 -12.6655 -12.6647 -12.6344
   -12.5334 -12.4385 -12.1439 -12.1411 -12.0406 -12.0354 -11.9986 -11.9398
   -11.9129 -11.7997 -11.7261 -11.7235 -11.6061 -11.5546 -11.5522 -11.5082
   -11.4254 -11.3123 -10.4639 -10.4633 -10.3379 -10.3233 -10.3221 -10.3127
   -10.2305 -10.1455  -9.3927  -9.3924  -9.2806  -9.2728  -8.9133  -8.9108
    -8.8371  -8.8109  -8.4587  -8.3648  -8.3367  -8.3294  -8.2293  -8.0053
    -7.9701  -7.9670  -7.8707  -7.8696  -7.8480  -7.8463  -7.7777  -7.5536
    -7.4544  -7.4335  -7.4266  -7.3614  -7.3265  -7.3237  -7.2990  -7.2973
    -7.2852  -7.2319  -7.2078  -7.1287  -7.0692  -7.0657  -7.0402  -7.0299
    -6.9555  -6.9284  -6.9002  -6.8836  -6.7696  -6.7618  -6.7380  -6.7256
    -6.6317  -6.6303  -6.6270  -6.5945  -6.5896  -6.5844  -6.5527  -6.5148
    -6.4918  -6.4870  -6.4863  -6.4791  -6.4622  -6.4039  -6.3980  -6.3750
    -6.3547  -6.3386  -6.3222  -6.2557  -6.2401  -6.2286  -6.2232  -6.2122
    -6.2117  -6.1799  -6.1794  -6.1375  -6.1169  -6.1092  -6.1033  -6.0836
    -6.0457  -6.0335  -6.0090  -6.0012  -5.9714  -5.9708  -5.9574  -5.9495
    -5.9281  -5.8925  -5.8731  -5.8398  -5.8278  -5.8195  -5.8049  -5.7916
    -5.7543  -5.7448  -5.7215  -5.6667  -5.6456  -5.6262  -5.6051  -5.5923
    -5.5715  -5.5500  -5.5417  -5.5196  -5.4640  -5.4538  -5.4403  -5.3846
    -5.3729  -5.3378  -5.3337  -5.3101  -5.2945  -5.2760  -5.2652  -5.2624
    -5.2597  -5.2257  -5.2137  -5.1962  -5.1957  -5.1820  -5.1702  -5.1575
    -5.1398  -5.1191  -5.0989  -5.0876  -5.0667  -5.0604  -5.0252  -4.9665
    -4.9346  -4.9062  -4.8620  -4.8374  -4.8292  -4.8038  -4.7606  -4.7485
    -4.6619  -4.6224  -4.6190  -4.5981  -4.5875  -4.5789  -4.5552  -4.5297
    -4.4868  -4.4581  -4.4499  -4.4369  -4.3640  -4.3424  -4.3349  -4.2847
    -4.2762  -4.2608  -4.2372  -4.2288  -4.2243  -4.1934  -4.1860  -4.1655
    -4.1479  -4.1141  -4.1090  -4.1046  -4.0704  -4.0523  -4.0228  -4.0146
    -4.0031  -3.9709  -3.9446  -3.9321  -3.9260  -3.9075  -3.8735  -3.8424
    -3.8330  -3.8184  -3.8111  -3.8015  -3.7801  -3.7609  -3.7528  -3.7351
    -3.7255  -3.7018  -3.6897  -3.6774  -3.6741  -3.6431  -3.6349  -3.6291
    -3.6000  -3.5912  -3.5761  -3.5706  -3.5559  -3.5495  -3.5320  -3.5177
    -3.5099  -3.4831  -3.4679  -3.4506  -3.4451  -3.4408  -3.4251  -3.4065
    -3.3902  -3.3763  -3.3495  -3.3408  -3.3265  -3.3209  -3.2906  -3.2559
    -3.2312  -3.2216  -3.2094  -3.1785  -3.1638  -3.1289  -3.1183  -3.0940
    -3.0910  -3.0634  -3.0519  -3.0373  -3.0071  -2.9832  -2.9545  -2.9460
    -2.9334  -2.9246  -2.9212  -2.9074  -2.8894  -2.8498  -2.8411  -2.7937
    -2.7828  -2.7685  -2.7569  -2.7374  -2.7222  -2.7071  -2.6926  -2.6871
    -2.6746  -2.6667  -2.6378  -2.6226  -2.6071  -2.5928  -2.5715  -2.5641
    -2.4889  -2.4583  -2.4328  -2.4246  -2.4085  -2.3947  -2.3725  -2.3460
    -2.3352  -2.2611  -2.2358  -2.2158  -2.1942  -2.1734  -2.1585  -2.1425
    -2.1321  -2.1008  -2.0632  -1.5641  -1.4652  -1.2985  -1.0080   0.0120
     0.0783   0.1162   0.3260   0.3553   0.3716   0.4158   0.4366   0.4609
     0.4711   0.5269   0.5920   0.6009   0.6402   0.6721   0.7116   0.7717
     0.9641   1.1406   1.1909   1.2187   1.2382   1.2610   1.2932   1.3100
     1.3517   1.4049   1.4202   1.4313   1.4401   1.4709   1.6163   1.6483
     1.6635   1.6964   1.7182   1.7330   1.7516   1.7582   1.7693   1.7881
     1.7954   1.8214   1.8359   1.8482   1.8646   1.8659   1.8873   1.8878
     1.8962   1.9294   1.9410   1.9618   1.9977   2.0086   2.0156   2.0355
     2.0847   2.1029   2.1201   2.1584   2.1682   2.1699   2.2072   2.2398
     2.2654   2.2877   2.2959   2.3018   2.3233   2.3400   2.3632   2.3792
     2.3845   2.3853   2.3957   2.3981   2.4152   2.4613   2.4777   2.4812
     2.5013   2.5198   2.5845   2.6067   2.6143   2.6753   2.6912   2.7069
     2.7727   2.8073   2.8113   2.8289   2.8507   2.9030   2.9190   2.9493
     3.0404   3.0440   3.0566   3.0795   3.0835   3.1032   3.1182   3.1202

          k = 0.0000-1.0670 0.0000 (120926 PWs)   bands (ev):

   -66.2120 -66.1974 -65.9149 -65.8682 -65.8631 -65.8434 -65.8413 -65.8278
   -65.8189 -65.8156 -65.8146 -65.8132 -65.8109 -65.8040 -65.7905 -65.7860
   -65.7637 -65.7589 -65.6712 -65.6696 -65.6534 -65.6529 -65.6518 -65.6487
   -40.4177 -40.1474 -40.0224 -40.0025 -39.9788 -39.9676 -39.9146 -39.8999
   -39.8944 -39.8824 -39.8778 -39.8734 -39.8644 -39.8628 -39.8597 -39.8566
   -39.8544 -39.8492 -39.8283 -39.8226 -39.7956 -39.7888 -39.7373 -39.7270
   -39.7233 -39.7174 -39.6973 -39.6940 -39.6869 -39.6863 -39.6849 -39.6771
   -39.6731 -39.6693 -39.6672 -39.6653 -39.6581 -39.6438 -39.6429 -39.6392
   -39.6340 -39.6262 -39.6228 -39.6151 -39.6103 -39.6046 -39.6029 -39.5963
   -39.5887 -39.5864 -39.5841 -39.5817 -39.5802 -39.5760 -39.5750 -39.5715
   -39.5691 -39.5643 -39.5594 -39.5448 -39.5141 -39.5079 -39.4921 -39.4761
   -39.4681 -39.4653 -39.4579 -39.4507 -39.4460 -39.4330 -39.4258 -39.4239
   -23.4178 -19.7058 -19.7004 -19.6734 -19.6476 -19.6433 -19.4947 -19.4660
   -19.4605 -19.4343 -19.4242 -19.4071 -19.3888 -19.2828 -19.2591 -19.2530
   -19.2356 -19.0949 -18.7815 -18.6948 -18.6025 -18.6000 -18.5781 -18.5681
   -18.5370 -18.5212 -18.4825 -18.4799 -18.4507 -18.4414 -18.4212 -18.3868
   -18.3419 -18.3259 -18.3049 -18.2993 -18.2941 -18.2723 -18.2592 -18.2401
   -18.1908 -18.1878 -18.1793 -18.1264 -18.1164 -18.0737 -18.0696 -18.0374
   -17.9139 -17.9122 -17.9112 -17.9093 -17.8893 -17.8713 -17.8269 -17.7887
   -17.7883 -17.7795 -17.7701 -17.7540 -17.7504 -17.7460 -17.7361 -17.7314
   -17.7295 -17.7046 -17.7032 -17.6709 -17.6618 -17.6549 -17.6476 -17.6421
   -17.6105 -17.6020 -17.5852 -17.5816 -17.5128 -17.4103 -17.4000 -17.3903
   -17.3878 -17.3758 -17.3633 -17.0074 -16.4363 -16.4287 -16.2436 -16.1416
   -15.9814 -15.9715 -15.7789 -15.5744 -14.9713 -14.9665 -14.8560 -14.7862
   -14.7326 -14.7226 -14.7166 -14.6813 -14.5397 -14.3540 -14.3497 -14.2990
   -14.2022 -14.0910 -13.7767 -13.4801 -13.2070 -13.2041 -13.0746 -12.9892
   -12.9282 -12.9244 -12.7580 -12.5954 -12.4454 -12.4417 -12.3595 -12.3542
   -12.3275 -12.2288 -12.1978 -12.1456 -10.6382 -10.6362 -10.5292 -10.4626
    -9.9054  -9.9051  -9.7885  -9.7790  -9.7027  -9.7006  -9.6093  -9.5094
    -9.4580  -9.4244  -9.4089  -9.3251  -9.1896  -9.1849  -9.1425  -9.0616
    -9.0601  -9.0448  -8.9647  -8.9637  -8.9273  -8.9210  -8.8885  -8.8678
    -8.7142  -8.7138  -8.5982  -8.5860  -7.9940  -7.9764  -7.9271  -7.9225
    -7.9134  -7.8930  -7.8094  -7.7846  -7.5326  -7.5314  -7.4857  -7.3855
    -7.1716  -7.1486  -7.0770  -7.0607  -7.0578  -7.0271  -7.0015  -6.9559
    -6.9353  -6.9327  -6.8770  -6.8036  -6.7344  -6.7270  -6.7178  -6.7121
    -6.6796  -6.6500  -6.6395  -6.6381  -6.6251  -6.5587  -6.5394  -6.5329
    -6.5094  -6.4997  -6.4931  -6.4657  -6.3910  -6.3604  -6.3081  -6.2615
    -6.2581  -6.2342  -6.2113  -6.1976  -6.1703  -6.1682  -6.1653  -6.1609
    -6.1375  -6.1162  -6.0913  -6.0461  -6.0423  -6.0275  -6.0184  -6.0135
    -5.9887  -5.9816  -5.9662  -5.9193  -5.9143  -5.8970  -5.8798  -5.8584
    -5.8403  -5.8261  -5.8117  -5.8050  -5.7906  -5.7642  -5.7535  -5.7428
    -5.7010  -5.6597  -5.6333  -5.6178  -5.5604  -5.5572  -5.5116  -5.4829
    -5.4768  -5.4571  -5.4378  -5.4073  -5.4057  -5.3709  -5.3353  -5.3078
    -5.2921  -5.2506  -5.2229  -5.2131  -5.2033  -5.1781  -5.1576  -5.1190
    -5.0962  -5.0719  -5.0649  -5.0496  -5.0383  -5.0225  -5.0223  -5.0141
    -5.0107  -5.0002  -4.9880  -4.9546  -4.9441  -4.9404  -4.9229  -4.9070
    -4.8965  -4.8681  -4.8553  -4.8451  -4.8326  -4.8173  -4.8043  -4.7894
    -4.7601  -4.7232  -4.7053  -4.6735  -4.6616  -4.6456  -4.6325  -4.6009
    -4.5967  -4.5858  -4.5630  -4.5379  -4.5043  -4.4998  -4.4988  -4.4567
    -4.4506  -4.4259  -4.4249  -4.4231  -4.4148  -4.3750  -4.3656  -4.3516
    -4.3394  -4.3190  -4.2719  -4.2658  -4.1778  -4.1441  -4.1406  -4.1145
    -4.0823  -4.0667  -4.0547  -4.0145  -3.9948  -3.9799  -3.9723  -3.9458
    -3.8981  -3.8767  -3.8529  -3.8387  -3.8257  -3.7969  -3.7621  -3.7495
    -3.7430  -3.7337  -3.7311  -3.7176  -3.7071  -3.6926  -3.6846  -3.6788
    -3.6445  -3.6002  -3.5939  -3.5582  -3.5327  -3.5276  -3.5200  -3.5056
    -3.4818  -3.4632  -3.4277  -3.4213  -3.4105  -3.3893  -3.3793  -3.3775
    -3.3369  -3.3300  -3.3193  -3.3047  -3.2666  -3.2420  -3.2412  -3.2265
    -3.1978  -3.1818  -3.1754  -3.1416  -3.1187  -3.0907  -3.0820  -3.0566
    -3.0511  -3.0347  -3.0229  -3.0071  -2.9802  -2.9524  -2.9100  -2.8951
    -2.8849  -2.8724  -2.8355  -2.8254  -2.7944  -2.7739  -2.7646  -2.7440
    -2.7210  -2.7067  -2.6896  -2.6817  -2.6616  -2.6103  -2.5958  -2.5636
    -2.5566  -2.5313  -2.5220  -2.4866  -2.4816  -2.4680  -2.4623  -2.4249
    -2.4125  -2.3983  -2.3879  -2.3749  -2.3496  -2.3302  -2.3269  -2.3053
    -2.2853  -2.2591  -2.2521  -2.2260  -2.2122  -2.1709  -2.1506  -2.0973
    -2.0404  -2.0267  -1.9587  -1.8629  -1.6972  -1.6018  -1.1503   0.1248
     0.1979   0.2042   0.2182   0.2773   0.3150   0.3538   0.3991   0.4405
     0.4945   0.5375   0.5929   0.7145   0.7940   0.8552   0.8807   0.8937
     1.0813   1.1021   1.1232   1.1536   1.1678   1.1963   1.2105   1.2325
     1.3523   1.3597   1.3675   1.3699   1.3770   1.4185   1.4268   1.4505
     1.4746   1.4786   1.4962   1.5819   1.6477   1.6555   1.6766   1.6936
     1.7103   1.7331   1.7740   1.7888   1.8050   1.8339   1.8356   1.8528
     1.8614   1.8802   1.9029   1.9160   1.9243   1.9503   1.9577   1.9731
     1.9833   1.9940   2.0087   2.0206   2.0408   2.0608   2.0969   2.0996
     2.1282   2.1367   2.1450   2.1678   2.1917   2.2123   2.2278   2.2528
     2.2822   2.3067   2.3128   2.3198   2.3400   2.3648   2.4195   2.4259
     2.4426   2.4462   2.4738   2.5211   2.5365   2.5442   2.5676   2.6164
     2.6216   2.7791   2.8548   2.9081   2.9413   3.0482   3.1192   3.1575
     3.1719   3.1858   3.2084   3.2271   3.2592   3.2706   3.2772   3.2978

          k =-0.5000-0.5573 0.0000 (120880 PWs)   bands (ev):

   -66.2120 -66.1974 -65.9149 -65.8682 -65.8631 -65.8433 -65.8413 -65.8278
   -65.8189 -65.8155 -65.8146 -65.8132 -65.8109 -65.8040 -65.7905 -65.7860
   -65.7637 -65.7589 -65.6712 -65.6696 -65.6534 -65.6529 -65.6518 -65.6487
   -40.4176 -40.1474 -40.0224 -40.0024 -39.9788 -39.9676 -39.9145 -39.8999
   -39.8944 -39.8822 -39.8776 -39.8736 -39.8648 -39.8626 -39.8592 -39.8566
   -39.8551 -39.8485 -39.8283 -39.8226 -39.7955 -39.7888 -39.7357 -39.7325
   -39.7291 -39.7162 -39.6954 -39.6862 -39.6852 -39.6812 -39.6800 -39.6771
   -39.6734 -39.6690 -39.6688 -39.6643 -39.6572 -39.6517 -39.6417 -39.6376
   -39.6366 -39.6303 -39.6265 -39.6170 -39.6126 -39.6103 -39.6016 -39.5974
   -39.5902 -39.5844 -39.5792 -39.5790 -39.5766 -39.5761 -39.5714 -39.5696
   -39.5684 -39.5633 -39.5594 -39.5443 -39.5163 -39.5108 -39.4954 -39.4791
   -39.4672 -39.4631 -39.4560 -39.4502 -39.4457 -39.4329 -39.4255 -39.4235
   -23.4179 -19.8929 -19.8787 -19.6835 -19.6697 -19.5236 -19.4940 -19.4689
   -19.3871 -19.3264 -19.3217 -19.2904 -19.2042 -19.1855 -19.0949 -19.0892
   -18.9841 -18.9810 -18.8818 -18.8348 -18.7753 -18.7729 -18.7115 -18.6031
   -18.5971 -18.5816 -18.5666 -18.5522 -18.5465 -18.5147 -18.4654 -18.4627
   -18.4589 -18.4506 -18.4204 -18.4004 -18.3575 -18.3437 -18.3225 -18.3092
   -18.2645 -18.2548 -18.2332 -18.2124 -18.2053 -18.1950 -18.1692 -18.1027
   -18.0899 -18.0590 -18.0378 -18.0253 -17.8792 -17.8499 -17.7901 -17.7848
   -17.7515 -17.7505 -17.7401 -17.7270 -17.7249 -17.7191 -17.7039 -17.6601
   -17.6574 -17.6476 -17.6410 -17.6244 -17.5986 -17.5792 -17.4104 -17.4000
   -17.3903 -17.3878 -17.3758 -17.3715 -17.3633 -17.3624 -17.1766 -17.0907
   -17.0503 -17.0289 -16.8395 -16.7378 -16.6636 -16.6495 -16.4683 -16.4595
   -16.4573 -16.3540 -16.2608 -15.8530 -15.1547 -15.1492 -14.9773 -14.9695
   -14.9069 -14.7400 -14.7367 -14.6268 -14.6014 -14.4896 -13.7790 -13.7372
   -13.7359 -13.6385 -13.5559 -13.5427 -13.5390 -13.5153 -13.3633 -13.1270
   -12.7318 -12.7313 -12.6549 -12.6533 -12.5877 -12.5366 -12.5004 -12.3541
   -11.2925 -11.2881 -11.1843 -11.0838 -10.9425 -10.9401 -10.9003 -10.8998
   -10.8374 -10.7697 -10.7581 -10.7166 -10.4703 -10.4694 -10.3428 -10.3153
    -9.6892  -9.6844  -9.6328  -9.5789  -9.0960  -9.0914  -9.0398  -9.0053
    -8.5423  -8.5373  -8.4983  -8.4168  -8.3491  -8.3484  -8.2804  -8.2613
    -8.2100  -8.1332  -7.8985  -7.8507  -7.8448  -7.6656  -7.6001  -7.5995
    -7.5547  -7.5160  -7.5095  -7.4889  -7.4817  -7.4556  -7.3293  -7.2972
    -7.2539  -7.2367  -7.2342  -7.2196  -7.1854  -7.1790  -7.0949  -7.0929
    -7.0906  -7.0465  -7.0122  -6.9554  -6.9375  -6.8614  -6.8395  -6.7979
    -6.7920  -6.7716  -6.7695  -6.7387  -6.6863  -6.6446  -6.6416  -6.6341
    -6.6145  -6.5699  -6.5531  -6.5065  -6.4984  -6.4680  -6.4554  -6.4341
    -6.4281  -6.4152  -6.3839  -6.3689  -6.3679  -6.3321  -6.3066  -6.2384
    -6.2262  -6.2081  -6.1982  -6.1696  -6.1632  -6.1489  -6.1410  -6.1005
    -6.0522  -6.0493  -6.0212  -5.9875  -5.9741  -5.9638  -5.9332  -5.9284
    -5.8893  -5.8743  -5.8577  -5.8134  -5.7730  -5.7503  -5.7382  -5.7277
    -5.6796  -5.6418  -5.6104  -5.5886  -5.5461  -5.4928  -5.4785  -5.4627
    -5.4212  -5.3813  -5.3720  -5.3107  -5.3102  -5.2764  -5.2760  -5.2702
    -5.2605  -5.2507  -5.2480  -5.2006  -5.1902  -5.1792  -5.1759  -5.1536
    -5.1444  -5.1407  -5.1243  -5.0986  -5.0829  -5.0669  -5.0417  -5.0182
    -5.0039  -4.9854  -4.9646  -4.9366  -4.8911  -4.8853  -4.8751  -4.8497
    -4.8324  -4.8061  -4.7915  -4.7857  -4.7741  -4.7643  -4.7499  -4.7097
    -4.6805  -4.6403  -4.6281  -4.6074  -4.5846  -4.5713  -4.5496  -4.5416
    -4.5282  -4.5249  -4.5148  -4.5130  -4.5004  -4.4879  -4.4406  -4.4368
    -4.4105  -4.3895  -4.3600  -4.3534  -4.3341  -4.2942  -4.2644  -4.2500
    -4.2466  -4.2209  -4.2124  -4.1919  -4.1541  -4.1501  -4.1386  -4.1082
    -4.0898  -4.0829  -4.0815  -4.0582  -4.0529  -4.0339  -4.0005  -3.9909
    -3.9839  -3.9681  -3.9616  -3.9469  -3.8936  -3.8521  -3.8404  -3.8116
    -3.8021  -3.7914  -3.7674  -3.7500  -3.7347  -3.7022  -3.6587  -3.6444
    -3.6372  -3.6119  -3.5849  -3.5704  -3.5530  -3.5374  -3.5319  -3.4914
    -3.4848  -3.4806  -3.4577  -3.4419  -3.4323  -3.4202  -3.3905  -3.3804
    -3.3739  -3.3563  -3.3427  -3.3372  -3.3021  -3.2613  -3.2395  -3.2205
    -3.2020  -3.1731  -3.1619  -3.1257  -3.0926  -3.0756  -3.0590  -3.0439
    -3.0402  -3.0202  -3.0071  -2.9863  -2.9564  -2.9426  -2.9335  -2.9055
    -2.8882  -2.8786  -2.8619  -2.8495  -2.8007  -2.7801  -2.7682  -2.7513
    -2.7336  -2.7098  -2.6957  -2.6884  -2.6582  -2.6529  -2.6435  -2.6302
    -2.5960  -2.5673  -2.5372  -2.4992  -2.4890  -2.4790  -2.4726  -2.4631
    -2.4474  -2.4433  -2.4226  -2.4157  -2.4085  -2.3991  -2.3801  -2.3608
    -2.3331  -2.3177  -2.3098  -2.2684  -2.2646  -2.2041  -2.1882  -2.1734
    -2.1206  -2.0888  -1.8506  -1.2958  -1.1600  -0.9089  -0.5276  -0.0759
     0.1368   0.1394   0.1893   0.1944   0.2042   0.2611   0.2874   0.3256
     0.3977   0.4424   0.5179   0.5395   0.5774   0.5834   0.6980   0.7589
     0.7755   0.9075   1.1523   1.1715   1.1824   1.1925   1.2308   1.2422
     1.2592   1.3405   1.3510   1.3816   1.4025   1.4300   1.4608   1.4678
     1.5053   1.5117   1.5498   1.5721   1.5956   1.6737   1.7022   1.7290
     1.7482   1.7686   1.7780   1.8022   1.8254   1.8435   1.8460   1.8600
     1.8657   1.8729   1.8958   1.8991   1.9408   1.9616   1.9765   2.0166
     2.0321   2.0399   2.0693   2.0781   2.1031   2.1213   2.1277   2.1406
     2.1614   2.1782   2.1935   2.2123   2.2333   2.2523   2.3030   2.3335
     2.3392   2.3884   2.4033   2.4114   2.4461   2.4466   2.4662   2.4900
     2.5119   2.5526   2.5625   2.5696   2.5753   2.6049   2.8517   2.8901
     2.9244   2.9268   2.9423   2.9641   3.0074   3.0323   3.0349   3.0379
     3.1093   3.1477   3.1671   3.2025   3.2474   3.2649   3.3116   3.3912

          k =-0.5000-1.6243 0.0000 (120890 PWs)   bands (ev):

   -66.2120 -66.1974 -65.9149 -65.8682 -65.8631 -65.8434 -65.8413 -65.8278
   -65.8189 -65.8156 -65.8146 -65.8132 -65.8109 -65.8040 -65.7905 -65.7860
   -65.7637 -65.7589 -65.6713 -65.6696 -65.6534 -65.6530 -65.6517 -65.6487
   -40.4176 -40.1473 -40.0224 -40.0024 -39.9788 -39.9675 -39.9144 -39.9001
   -39.8941 -39.8820 -39.8783 -39.8734 -39.8644 -39.8630 -39.8591 -39.8566
   -39.8546 -39.8491 -39.8283 -39.8225 -39.7955 -39.7889 -39.7337 -39.7306
   -39.7219 -39.7156 -39.6972 -39.6931 -39.6877 -39.6867 -39.6843 -39.6777
   -39.6723 -39.6716 -39.6693 -39.6656 -39.6630 -39.6428 -39.6418 -39.6352
   -39.6323 -39.6263 -39.6184 -39.6149 -39.6057 -39.6043 -39.6033 -39.5964
   -39.5938 -39.5906 -39.5863 -39.5859 -39.5804 -39.5797 -39.5736 -39.5706
   -39.5678 -39.5660 -39.5603 -39.5330 -39.5144 -39.5081 -39.4922 -39.4726
   -39.4682 -39.4643 -39.4591 -39.4539 -39.4469 -39.4425 -39.4269 -39.4136
   -23.4179 -19.9139 -19.8996 -19.7207 -19.6960 -19.5695 -19.5525 -19.5234
   -19.4063 -19.3818 -19.1023 -19.0727 -19.0342 -19.0293 -19.0260 -19.0046
   -18.9384 -18.9218 -18.9186 -18.9089 -18.8576 -18.8498 -18.8438 -18.7734
   -18.7112 -18.6267 -18.5726 -18.5432 -18.4852 -18.4445 -18.4392 -18.4253
   -18.4180 -18.4084 -18.3935 -18.3306 -18.3251 -18.3142 -18.2987 -18.2945
   -18.2563 -18.2501 -18.2326 -18.2222 -18.2183 -18.2161 -18.2084 -18.1962
   -18.1891 -18.1226 -18.0952 -18.0761 -18.0316 -17.8567 -17.8357 -17.7980
   -17.7761 -17.7533 -17.7470 -17.7397 -17.7134 -17.7102 -17.7017 -17.6927
   -17.6924 -17.6473 -17.6367 -17.6115 -17.6025 -17.5846 -17.4709 -17.4635
   -17.4143 -17.3974 -17.3928 -17.3792 -17.3737 -17.3704 -17.2564 -17.2086
   -17.1505 -17.1292 -16.9450 -16.6808 -16.3706 -16.3620 -16.2219 -16.1648
   -16.1629 -16.0847 -15.9773 -15.7397 -15.0247 -15.0224 -15.0203 -15.0149
   -14.8574 -14.8393 -14.8217 -14.7687 -14.7233 -14.6604 -14.6564 -14.5788
   -14.4793 -13.9394 -13.7790 -13.6215 -13.3862 -13.3849 -13.2579 -13.1948
   -12.1301 -12.1272 -12.0294 -11.9818 -11.9805 -11.9450 -11.9400 -11.9349
   -11.8797 -11.7850 -11.7663 -11.6482 -11.0218 -11.0198 -10.9195 -10.9093
   -10.9067 -10.8396 -10.7854 -10.7248  -9.9082  -9.9068  -9.8407  -9.8377
    -9.8157  -9.7606  -9.7191  -9.6589  -9.6344  -9.6338  -9.5203  -9.5059
    -8.9064  -8.9051  -8.8065  -8.7262  -8.4330  -8.4286  -8.3982  -8.3947
    -8.2969  -8.2957  -8.2404  -8.2097  -8.1643  -8.1192  -7.5183  -7.4823
    -7.3412  -7.2788  -7.1650  -7.1416  -7.1067  -7.0817  -7.0813  -7.0144
    -6.9788  -6.9635  -6.9557  -6.9330  -6.9250  -6.9198  -6.9176  -6.9170
    -6.9166  -6.8998  -6.8805  -6.8172  -6.8090  -6.8061  -6.8015  -6.8006
    -6.7808  -6.7648  -6.7583  -6.7484  -6.7327  -6.7290  -6.6854  -6.6774
    -6.6331  -6.6270  -6.6242  -6.5183  -6.4622  -6.4425  -6.4406  -6.4004
    -6.3773  -6.3535  -6.3230  -6.2895  -6.2671  -6.2312  -6.2228  -6.2195
    -6.2029  -6.1786  -6.1414  -6.1362  -6.1027  -6.0862  -6.0576  -6.0445
    -6.0318  -6.0242  -5.9970  -5.9751  -5.9317  -5.9191  -5.9081  -5.8914
    -5.8822  -5.8701  -5.8455  -5.8222  -5.7995  -5.7903  -5.7898  -5.7817
    -5.7625  -5.7438  -5.7327  -5.7083  -5.6831  -5.6593  -5.6310  -5.6143
    -5.5626  -5.5499  -5.5262  -5.5124  -5.4573  -5.4267  -5.4256  -5.4209
    -5.3907  -5.3674  -5.3589  -5.3478  -5.3242  -5.2879  -5.2792  -5.2494
    -5.2312  -5.2102  -5.1985  -5.1575  -5.1226  -5.1098  -5.0859  -5.0705
    -5.0618  -5.0396  -5.0148  -5.0060  -4.9994  -4.9593  -4.9526  -4.9237
    -4.8814  -4.8592  -4.8017  -4.7543  -4.7111  -4.6865  -4.6794  -4.6565
    -4.6447  -4.6085  -4.5868  -4.5739  -4.5471  -4.5281  -4.4735  -4.4692
    -4.4272  -4.4162  -4.4152  -4.4116  -4.4084  -4.3673  -4.3481  -4.3333
    -4.2992  -4.2811  -4.2509  -4.2443  -4.2424  -4.2214  -4.2096  -4.1830
    -4.1714  -4.1518  -4.1398  -4.1093  -4.1026  -4.0941  -4.0792  -4.0629
    -4.0606  -4.0576  -4.0514  -4.0337  -4.0151  -3.9970  -3.9925  -3.9458
    -3.9264  -3.9213  -3.8866  -3.8703  -3.8678  -3.8288  -3.8227  -3.8151
    -3.8017  -3.7956  -3.7849  -3.7711  -3.7610  -3.7525  -3.7410  -3.7222
    -3.7162  -3.6809  -3.6710  -3.6615  -3.6308  -3.5926  -3.5791  -3.5724
    -3.5175  -3.4903  -3.4681  -3.4453  -3.4268  -3.3990  -3.3884  -3.3835
    -3.3565  -3.3514  -3.3396  -3.3252  -3.3105  -3.2877  -3.2782  -3.2587
    -3.2455  -3.2030  -3.1711  -3.1492  -3.1273  -3.0565  -3.0304  -2.9993
    -2.9823  -2.9589  -2.9369  -2.9176  -2.8777  -2.8525  -2.8397  -2.8296
    -2.8134  -2.8084  -2.7985  -2.7915  -2.7687  -2.7552  -2.7470  -2.7385
    -2.7318  -2.7173  -2.6989  -2.6555  -2.6364  -2.6258  -2.6125  -2.6102
    -2.5922  -2.5883  -2.5735  -2.5641  -2.5563  -2.5405  -2.5166  -2.5107
    -2.4962  -2.4783  -2.4654  -2.4542  -2.4243  -2.3383  -2.3230  -2.2989
    -2.2863  -2.2452  -2.2398  -2.2325  -2.2119  -2.1910  -2.1448  -2.0909
    -2.0804  -2.0608  -2.0473  -2.0209  -1.9983  -1.9639  -1.6154   0.0259
     0.0689   0.1210   0.3527   0.3594   0.4124   0.4508   0.4790   0.5997
     0.6390   0.6501   0.6747   0.7206   0.7519   0.7784   1.0541   1.0909
     1.1442   1.2063   1.2163   1.2184   1.2684   1.2862   1.3069   1.3176
     1.3919   1.4004   1.4056   1.4269   1.4322   1.4434   1.4570   1.4646
     1.4808   1.5289   1.5962   1.6322   1.6366   1.6662   1.6945   1.7050
     1.7154   1.7359   1.7497   1.7609   1.7865   1.8040   1.8122   1.8303
     1.8465   1.8539   1.8802   1.8963   1.9089   1.9446   1.9542   1.9724
     1.9779   1.9923   2.0069   2.0213   2.0563   2.0656   2.1078   2.1265
     2.1583   2.1721   2.2022   2.2064   2.2439   2.2460   2.3108   2.3179
     2.3411   2.3495   2.3745   2.3918   2.4148   2.4691   2.4799   2.5292
     2.5900   2.6222   2.6897   2.7057   2.7309   2.7348   2.7720   2.8113
     2.8513   2.8618   2.9045   2.9193   2.9507   2.9612   3.0055   3.0285
     3.0581   3.0703   3.0716   3.0811   3.0941   3.1045   3.1117   3.2305

     the Fermi energy is    -0.5883 ev

!    total energy              =   -9449.70523460 Ry
     Harris-Foulkes estimate   =   -9449.70523383 Ry
     estimated scf accuracy    <       0.00000044 Ry

     total all-electron energy =    -61728.215403 Ry

     The total energy is the sum of the following terms:

     one-electron contribution = -101675.10439569 Ry
     hartree contribution      =   51053.38012472 Ry
     xc contribution           =   -1394.00792829 Ry
     ewald contribution        =   45464.89138200 Ry
     one-center paw contrib.   =   -2897.53094582 Ry
     smearing contrib. (-TS)   =      -1.33347153 Ry

     convergence has been achieved in  30 iterations

     negative rho (up, down):  5.859E-02 0.000E+00

     Forces acting on atoms (cartesian axes, Ry/au):

     atom    1 type  1   force =    -0.00750585    0.00810381    0.02688663
     atom    2 type  1   force =     0.00026520   -0.00010074    0.02429183
     atom    3 type  1   force =    -0.00004873    0.00029294    0.02421575
     atom    4 type  1   force =     0.00059494    0.00388572   -0.01248715
     atom    5 type  1   force =    -0.00317804    0.00329748   -0.01343035
     atom    6 type  1   force =    -0.00370223    0.00104380   -0.01252640
     atom    7 type  1   force =     0.00422153   -0.00072882   -0.01558770
     atom    8 type  1   force =     0.00487626   -0.00383941   -0.01311347
     atom    9 type  1   force =    -0.00023525   -0.00020588   -0.01601038
     atom   10 type  1   force =    -0.00094994    0.00015458   -0.00105810
     atom   11 type  1   force =    -0.00121111    0.00764949    0.02499534
     atom   12 type  1   force =    -0.00718751    0.00315276    0.02527507
     atom   13 type  1   force =     0.01367704   -0.01630469    0.02153191
     atom   14 type  1   force =     0.00272314   -0.00906473    0.01836271
     atom   15 type  1   force =     0.00495286   -0.00638508    0.01734187
     atom   16 type  1   force =    -0.00636261    0.00686870   -0.01558733
     atom   17 type  1   force =    -0.00573955    0.00741150   -0.01611931
     atom   18 type  1   force =    -0.00527333    0.00814869   -0.01518364
     atom   19 type  1   force =    -0.00434129   -0.00729697   -0.01212315
     atom   20 type  1   force =     0.00501639   -0.00690052   -0.01494033
     atom   21 type  1   force =     0.00543712    0.00109284   -0.01266612
     atom   22 type  1   force =    -0.00441173    0.01159278    0.19913295
     atom   23 type  1   force =    -0.00848600   -0.00086634    0.02044427
     atom   24 type  1   force =     0.00454310    0.01199852    0.02092945
     atom   25 type  2   force =     0.00063699    0.00244916    0.00508585
     atom   26 type  2   force =    -0.00153775    0.00256620    0.00504612
     atom   27 type  2   force =    -0.00208697   -0.00002598    0.00456604
     atom   28 type  2   force =     0.00158675   -0.00386864   -0.00756170
     atom   29 type  2   force =    -0.00097736   -0.00421351   -0.00743786
     atom   30 type  2   force =     0.00273959   -0.00106610   -0.00720493
     atom   31 type  2   force =    -0.00741611    0.00707523   -0.00622272
     atom   32 type  2   force =    -0.00147082    0.00232101   -0.00633452
     atom   33 type  2   force =    -0.00185967    0.00197832   -0.00650492
     atom   34 type  2   force =    -0.00783713   -0.00637023   -0.00271960
     atom   35 type  2   force =    -0.00161912   -0.00194540    0.00442334
     atom   36 type  2   force =     0.00407700    0.00629677    0.00047269
     atom   37 type  2   force =    -0.00064051    0.00249721   -0.04743333
     atom   38 type  2   force =    -0.00155282    0.00036730   -0.04611652
     atom   39 type  2   force =    -0.00106095    0.00164070    0.03144966
     atom   40 type  2   force =    -0.00116149    0.00190602    0.03267523
     atom   41 type  2   force =    -0.00089114    0.00226920    0.03183496
     atom   42 type  2   force =     0.00172751   -0.00199890    0.03249025
     atom   43 type  2   force =     0.00123197   -0.00227621    0.03292813
     atom   44 type  2   force =     0.00112484   -0.00251514    0.03265574
     atom   45 type  2   force =    -0.00252311    0.00399409   -0.02222179
     atom   46 type  2   force =    -0.00112477    0.00105429   -0.02207699
     atom   47 type  2   force =    -0.00263078    0.00048739   -0.02231768
     atom   48 type  2   force =     0.02153218   -0.01999321   -0.01465503
     atom   49 type  2   force =     0.00445867   -0.00506491    0.00973957
     atom   50 type  2   force =     0.00606723   -0.00375384    0.00979172
     atom   51 type  2   force =     0.00219246   -0.00217736   -0.04474660
     atom   52 type  2   force =     0.00217597   -0.00185226   -0.04562709
     atom   53 type  2   force =     0.00232184   -0.00135823   -0.04543281
     atom   54 type  2   force =    -0.00205464    0.00876583    0.00540539
     atom   55 type  2   force =    -0.00257197    0.00663263    0.00516223
     atom   56 type  2   force =    -0.00478536    0.00579567    0.00525532
     atom   57 type  2   force =     0.00326048   -0.00567349   -0.00603656
     atom   58 type  2   force =     0.00474438   -0.00697734   -0.00519169
     atom   59 type  2   force =     0.00406994   -0.00773750   -0.00519912
     atom   60 type  2   force =     0.00535813   -0.00126157   -0.01103767
     atom   61 type  2   force =    -0.00200808    0.00791518   -0.00510904
     atom   62 type  2   force =    -0.00475080    0.00540322   -0.00510363
     atom   63 type  2   force =     0.01918162    0.00376247   -0.00004465
     atom   64 type  2   force =     0.00299388   -0.00702981    0.00469469
     atom   65 type  2   force =    -0.00773551   -0.02063829    0.00092626
     atom   66 type  2   force =     0.00822836   -0.01092734   -0.17753298
     atom   67 type  2   force =     0.00267140   -0.00126251   -0.03792326
     atom   68 type  2   force =     0.00133225   -0.00234959   -0.03802814
     atom   69 type  2   force =     0.00234044   -0.00133190    0.03809115
     atom   70 type  2   force =     0.00167292   -0.00141420    0.03921002
     atom   71 type  2   force =     0.00176839   -0.00204643    0.03823858
     atom   72 type  2   force =    -0.00166107    0.00134162    0.03933115
     atom   73 type  2   force =    -0.00175564    0.00140175    0.03951887
     atom   74 type  2   force =    -0.00165500    0.00134048    0.03926032
     atom   75 type  2   force =     0.00191710   -0.00078787   -0.00785804
     atom   76 type  2   force =     0.00058759   -0.00051011   -0.00807051
     atom   77 type  2   force =     0.00097046   -0.00175467   -0.00797170
     atom   78 type  2   force =    -0.02150057    0.01718828    0.01187858
     atom   79 type  2   force =    -0.00096137    0.00188829    0.01703878
     atom   80 type  2   force =    -0.00221133    0.00086231    0.01714141
     atom   81 type  2   force =    -0.00341974    0.00449669   -0.04063736
     atom   82 type  2   force =    -0.00110391    0.00245411   -0.03569080
     atom   83 type  2   force =    -0.00081527    0.00142859   -0.03484562
     atom   84 type  2   force =    -0.00043296   -0.00113330    0.03666134
     atom   85 type  3   force =     0.00423747    0.00013682    0.00225307
     atom   86 type  3   force =     0.00430713    0.00002235    0.00092605
     atom   87 type  3   force =    -0.00364917    0.00129989    0.00119992
     atom   88 type  3   force =    -0.00187601   -0.00251036    0.00056133
     atom   89 type  3   force =    -0.00112710   -0.01008145    0.00009998
     atom   90 type  3   force =     0.00710395    0.00017679    0.00000387
     atom   91 type  3   force =     0.00414093    0.00525708    0.00058380
     atom   92 type  3   force =    -0.00059229   -0.00083355    0.00166807
     atom   93 type  3   force =    -0.00025784   -0.00510539    0.00165844
     atom   94 type  3   force =     0.00497048   -0.00156583    0.00082646
     atom   95 type  3   force =     0.00043915   -0.00515152    0.00192457
     atom   96 type  3   force =     0.00521141   -0.00099070    0.00210113
     atom   97 type  3   force =     0.00125569    0.00158448    0.00177750
     atom   98 type  3   force =    -0.00952965   -0.00107340    0.00092688
     atom   99 type  3   force =     0.00091195    0.00195760    0.00029060
     atom  100 type  3   force =    -0.00289041   -0.00218238    0.00155044
     atom  101 type  3   force =     0.00129042   -0.00418602    0.00218695
     atom  102 type  3   force =     0.00368508   -0.00347201    0.00122237
     atom  103 type  3   force =     0.00384486   -0.00037450    0.00043201
     atom  104 type  3   force =    -0.00382648   -0.00036362    0.00033434
     atom  105 type  3   force =    -0.00153877   -0.00253560    0.00188081
     atom  106 type  3   force =    -0.00164703   -0.01065758   -0.00069096
     atom  107 type  3   force =     0.00089300   -0.00151679   -0.01473088
     atom  108 type  3   force =    -0.00173313    0.00453086    0.00072664
     atom  109 type  3   force =     0.00930727    0.00078383   -0.00055174
     atom  110 type  3   force =    -0.00139237   -0.00146907    0.00038810
     atom  111 type  3   force =    -0.00152507    0.00199824   -0.01524681
     atom  112 type  3   force =    -0.00546785    0.00133677    0.00151176
     atom  113 type  3   force =     0.00051074    0.00446352    0.00114925
     atom  114 type  3   force =     0.00167074    0.00213670    0.00269802
     atom  115 type  3   force =    -0.00469649   -0.00545118    0.00022193
     atom  116 type  3   force =    -0.00670046   -0.00005775    0.00022257
     atom  117 type  3   force =    -0.00433078   -0.00029476    0.00164395
     atom  118 type  3   force =    -0.00335340    0.00353890    0.00174631
     atom  119 type  3   force =     0.00212987    0.00227012    0.00126124
     atom  120 type  3   force =     0.00207470    0.00217337    0.00147969
     atom  121 type  3   force =    -0.00123839   -0.00217205    0.00178530
     atom  122 type  3   force =    -0.00411072   -0.00008218    0.00190679
     atom  123 type  3   force =    -0.00523662    0.00141249    0.00104618
     atom  124 type  3   force =    -0.00076072    0.00549149    0.00065115
     atom  125 type  3   force =     0.00326430    0.00063993    0.00156224
     atom  126 type  3   force =     0.00031172    0.00086483    0.00040408
     atom  127 type  3   force =    -0.00377926   -0.00016954    0.00094987
     atom  128 type  3   force =     0.00117398    0.00907964   -0.00025264
     atom  129 type  3   force =     0.00386835   -0.00140593    0.00048640
     atom  130 type  3   force =     0.00127430    0.01135561    0.00057486
     atom  131 type  3   force =    -0.00033486    0.00009965   -0.00107569
     atom  132 type  3   force =    -0.00042408    0.00006625   -0.00058726
     atom  133 type  3   force =    -0.00024578   -0.00006000   -0.00110926
     atom  134 type  3   force =    -0.00010409    0.00004194   -0.00160271
     atom  135 type  3   force =    -0.00020019    0.00013590   -0.00142164
     atom  136 type  3   force =    -0.00031744    0.00008620   -0.00183124
     atom  137 type  3   force =    -0.00023665   -0.00037322   -0.00168011
     atom  138 type  3   force =    -0.00018404   -0.00001718   -0.00181430
     atom  139 type  3   force =    -0.00037917    0.00001504   -0.00211403
     atom  140 type  3   force =    -0.00007083   -0.00010918   -0.00137879
     atom  141 type  3   force =    -0.00013117   -0.00006542   -0.00109478
     atom  142 type  3   force =    -0.00022626    0.00011011   -0.00201504
     atom  143 type  3   force =    -0.00035128    0.00024548   -0.00212198
     atom  144 type  3   force =    -0.00014481   -0.00010418   -0.00142249
     atom  145 type  3   force =    -0.00030164    0.00008247   -0.00151279
     atom  146 type  3   force =    -0.00025443   -0.00006180   -0.00180494
     atom  147 type  3   force =    -0.00039782    0.00022755   -0.00128933
     atom  148 type  3   force =    -0.00038726    0.00014976   -0.00128296
     atom  149 type  3   force =    -0.00008173    0.00014573   -0.00047101
     atom  150 type  3   force =    -0.00000986   -0.00036692   -0.00003607
     atom  151 type  3   force =    -0.00027817   -0.00025207   -0.00068592
     atom  152 type  3   force =    -0.00008021    0.00020998    0.00054419
     atom  153 type  3   force =    -0.00028005    0.00001184   -0.00060620
     atom  154 type  3   force =     0.00032646   -0.00018207   -0.00043483
     atom  155 type  3   force =    -0.00032596   -0.00017081    0.00005854
     atom  156 type  3   force =    -0.00004510    0.00012968   -0.00132371
     atom  157 type  3   force =     0.00014907    0.00007999   -0.00105485
     atom  158 type  3   force =     0.00030861    0.00004754   -0.00146100
     atom  159 type  3   force =     0.00006134    0.00021361   -0.00182287
     atom  160 type  3   force =    -0.00000597   -0.00004131   -0.00160739
     atom  161 type  3   force =     0.00021765    0.00013936   -0.00179783
     atom  162 type  3   force =     0.00017539    0.00066029   -0.00151339
     atom  163 type  3   force =     0.00002070   -0.00004638   -0.00150727
     atom  164 type  3   force =     0.00024804    0.00027880   -0.00197513
     atom  165 type  3   force =     0.00037796   -0.00011245   -0.00184664
     atom  166 type  3   force =     0.00013660   -0.00032119   -0.00188848
     atom  167 type  3   force =     0.00001822    0.00017080   -0.00207296
     atom  168 type  3   force =     0.00030156   -0.00001090   -0.00182556
     atom  169 type  3   force =     0.00027175   -0.00012702   -0.00193711
     atom  170 type  3   force =     0.00032221    0.00015315   -0.00125392
     atom  171 type  3   force =     0.00008475   -0.00006488   -0.00071758
     atom  172 type  3   force =     0.00020485    0.00008839   -0.00110830
     atom  173 type  3   force =     0.00035391    0.00035364    0.00101011
     atom  174 type  3   force =     0.00026419    0.00040966   -0.00047801
     atom  175 type  3   force =     0.00005808    0.00014831   -0.00148885
     atom  176 type  3   force =     0.00044903   -0.00008693   -0.00154341

     Total force =     0.168513     Total SCF correction =     0.001408

     BFGS Geometry Optimization

     number of scf cycles    =   1
     number of bfgs steps    =   0

     energy   new            =   -9449.7052346031 Ry

     new trust radius        =       0.0475033423 bohr
     new conv_thr            =       0.0000010000 Ry


ATOMIC_POSITIONS (crystal)
V        0.331945225   0.182341665   0.224561823
V        0.998586523   0.850596516   0.225084130
V        0.666542942   0.517923328   0.224875757
V        0.151946161   0.807843951   0.256617342
V        0.818489949   0.471931882   0.256735142
V        0.485155799   0.140134156   0.256149463
V        0.162691488   0.523193705   0.256450225
V        0.831211240   0.188304540   0.255939794
V        0.500135655   0.860221722   0.256409340
V        0.317107386   0.469850814   0.252836364
V        0.984469916   0.142586405   0.225225385
V        0.649881610   0.807145471   0.225782085
V        0.330506110   0.187657740   0.351376980    0   0   0
V        0.997284420   0.854401840   0.351304520    0   0   0
V        0.663651710   0.520764830   0.351254970    0   0   0
V        0.148925770   0.809495250   0.386468370    0   0   0
V        0.815592870   0.476215340   0.386381710    0   0   0
V        0.482303510   0.142903530   0.386514520    0   0   0
V        0.165966980   0.518457800   0.386384710    0   0   0
V        0.832487640   0.184836750   0.386566170    0   0   0
V        0.499121230   0.851445580   0.386325480    0   0   0
V        0.317491800   0.473325230   0.351200600    0   0   0
V        0.984206490   0.140102520   0.351372830    0   0   0
V        0.651133840   0.807022160   0.351242580    0   0   0
O        0.163064690   0.988751217   0.239720971
O        0.829613450   0.652219044   0.239792010
O        0.495920152   0.321073649   0.239035232
O        0.321565504   0.003966307   0.240190024
O        0.988887193   0.669681410   0.241783780
O        0.654682787   0.335278590   0.241494127
O        0.328103690   0.654053833   0.243055549
O        0.995562354   0.324649926   0.241002516
O        0.661091740   0.990544629   0.240903885
O        0.156129685   0.341125266   0.241378558
O        0.820462635   0.007425596   0.238297374
O        0.485270863   0.670803988   0.242205029
O        0.989384493   0.151472978   0.178593418
O        0.643543445   0.804464211   0.179231923
O        0.163807557   0.534365057   0.302647495
O        0.832755853   0.200832352   0.302005179
O        0.501783834   0.873028349   0.302580370
O        0.151904698   0.796139294   0.302632540
O        0.816130168   0.457586266   0.302770054
O        0.481487162   0.124950001   0.302167352
O        0.159927907   0.667060716   0.237826626
O        0.825397317   0.330845357   0.237772576
O        0.489153366  -0.004736737   0.237459893
O        0.322554789   0.331766754   0.236842702
O        0.991126243  -0.003496694   0.236963994
O        0.658498252   0.663067799   0.237104526
O        0.331889273   0.183008278   0.178042401
O        0.999091873   0.847228204   0.178493475
O        0.669247647   0.517385491   0.178286594
O        0.160121590   0.989384010   0.366098470    0   0   0
O        0.826691550   0.655819710   0.365786070    0   0   0
O        0.493374610   0.322639310   0.366097380    0   0   0
O        0.319025180   0.009724960   0.371333610    0   0   0
O        0.985697730   0.676418320   0.371216180    0   0   0
O        0.652270930   0.342963800   0.371211520    0   0   0
O        0.329097370   0.651480560   0.371028550    0   0   0
O        0.995743670   0.318025400   0.371358350    0   0   0
O        0.662534420   0.984793950   0.371256090    0   0   0
O        0.154692040   0.338492790   0.365983300    0   0   0
O        0.821394290   0.005111330   0.366129120    0   0   0
O        0.488063540   0.671917200   0.365711060    0   0   0
O        0.315841700   0.465647430   0.305635670    0   0   0
O        0.982702520   0.133149500   0.305813000    0   0   0
O        0.650664640   0.800880490   0.305678720    0   0   0
O        0.166768110   0.509392030   0.431571530    0   0   0
O        0.832669290   0.175043530   0.431752910    0   0   0
O        0.499032820   0.840856750   0.431500380    0   0   0
O        0.148437300   0.818719620   0.431658610    0   0   0
O        0.815336750   0.486374530   0.431557490    0   0   0
O        0.482143290   0.152725030   0.431699710    0   0   0
O        0.157355700   0.663889720   0.375615710    0   0   0
O        0.824131450   0.330562670   0.375771520    0   0   0
O        0.490791170   0.997303910   0.375735230    0   0   0
O        0.324079360   0.330697350   0.368210930    0   0   0
O        0.990726570   0.997157860   0.368218280    0   0   0
O        0.657396410   0.663895610   0.368146130    0   0   0
O        0.331698470   0.194322570   0.305820800    0   0   0
O        0.998985750   0.861655500   0.305741140    0   0   0
O        0.664108260   0.526791010   0.305689110    0   0   0
O        0.388977515   0.561446725   0.148421413
C        0.325186969   0.841106410   0.100979247
C        0.194403064   0.058083034   0.098544827
C        0.235013196   0.313927503   0.103239009
C        0.019982164   0.013589580   0.096954952
C        0.279628812   0.580324647   0.104497994
C        0.063896947   0.275333352   0.098922004
C        0.846617068   0.971154020   0.097206464
C        0.107681423   0.537252736   0.098957161
C        0.890676390   0.232844219   0.098151446
C        0.673640366   0.929120433   0.100407464
C        0.151204524   0.797793047   0.098434952
C        0.933920155   0.493505060   0.098263709
C        0.716776465   0.189390041   0.099956192
C        0.499809333   0.885244283   0.104198272
C        0.977196453   0.753891456   0.096817136
C        0.759809054   0.449659462   0.097812145
C        0.542622564   0.145416086   0.099901366
C        0.803144837   0.709909527   0.096058196
C        0.585869748   0.405849131   0.097308551
C        0.368561977   0.101885393   0.098764004
C        0.629400006   0.666325222   0.098728489
C        0.412463040   0.362954603   0.101459513
C        0.459659589   0.626641961   0.112044334
C        0.238120731   0.985929202   0.098505663
C        0.280886885   0.245707844   0.101565805
C        0.063955287   0.941843181   0.097095834
C        0.320532505   0.502686375   0.111725637
C        0.106825800   0.201582712   0.099210046
C        0.889892722   0.898066848   0.096404645
C        0.151059037   0.464425988   0.100298105
C        0.933899362   0.159793223   0.097667379
C        0.716668003   0.855545341   0.098703307
C        0.194661017   0.725183876   0.099506832
C        0.977350086   0.421088829   0.098335489
C        0.760555805   0.117271838   0.099192524
C        0.020789897   0.681648007   0.097799097
C        0.803380921   0.377291521   0.098716726
C        0.586199938   0.073041824   0.101349494
C        0.846727310   0.637745426   0.096616318
C        0.629436393   0.333462250   0.098070148
C        0.412100410   0.029329119   0.099857089
C        0.672806790   0.593776824   0.096502439
C        0.455548460   0.290095662   0.098588506
C        0.500848016   0.550269488   0.103180165
C        0.545526569   0.816606954   0.104878213
C        0.368142530   0.768040364   0.103964438
C        0.321212260   0.156885610   0.001655230    0   0   0
C        0.190768100   0.374254910   0.001552990    0   0   0
C        0.234243470   0.635131920   0.002312530    0   0   0
C        0.016846530   0.330773110   0.002032650    0   0   0
C        0.277723170   0.896010930   0.002379760    0   0   0
C        0.060331320   0.591658670   0.002491920    0   0   0
C        0.842941550   0.287314450   0.002424820    0   0   0
C        0.103815610   0.852542070   0.001984390    0   0   0
C        0.886419290   0.548185310   0.002293790    0   0   0
C        0.669026660   0.243839540   0.002463130    0   0   0
C        0.147299760   0.113406210   0.001333400    0   0   0
[...]
     atom   83 type  2   force =    -0.00017188    0.00030856   -0.03299754
     atom   84 type  2   force =     0.00018119   -0.00033535    0.00150342
     atom   85 type  3   force =    -0.00045737   -0.00009169   -0.00017883
     atom   86 type  3   force =    -0.00022073    0.00020133   -0.00000829
     atom   87 type  3   force =     0.00011650   -0.00009916   -0.00019181
     atom   88 type  3   force =    -0.00020521    0.00038873   -0.00072063
     atom   89 type  3   force =     0.00008712   -0.00022525    0.00052882
     atom   90 type  3   force =     0.00008190   -0.00006778   -0.00049267
     atom   91 type  3   force =     0.00030486    0.00033814    0.00009885
     atom   92 type  3   force =    -0.00016802   -0.00003052   -0.00041271
     atom   93 type  3   force =     0.00004302    0.00018170   -0.00005896
     atom   94 type  3   force =     0.00025474    0.00003864    0.00032138
     atom   95 type  3   force =     0.00002812   -0.00014757    0.00038838
     atom   96 type  3   force =    -0.00023148   -0.00029772    0.00005460
     atom   97 type  3   force =    -0.00045994    0.00049593    0.00059179
     atom   98 type  3   force =     0.00001911    0.00024286    0.00005288
     atom   99 type  3   force =     0.00010699    0.00032487   -0.00019363
     atom  100 type  3   force =     0.00007801    0.00037221   -0.00071485
     atom  101 type  3   force =    -0.00020158    0.00025386   -0.00040772
     atom  102 type  3   force =     0.00032223    0.00070595    0.00078578
     atom  103 type  3   force =     0.00004277    0.00005542    0.00032919
     atom  104 type  3   force =    -0.00072133   -0.00014604    0.00029831
     atom  105 type  3   force =     0.00014057    0.00034087    0.00024074
     atom  106 type  3   force =     0.00025296   -0.00021080    0.00004028
     atom  107 type  3   force =    -0.00029528   -0.00047718   -0.00110094
     atom  108 type  3   force =    -0.00040951   -0.00057896   -0.00003040
     atom  109 type  3   force =    -0.00068249   -0.00019131   -0.00007189
     atom  110 type  3   force =    -0.00025525   -0.00092055    0.00047267
     atom  111 type  3   force =    -0.00019428    0.00042569   -0.00123604
     atom  112 type  3   force =    -0.00064845   -0.00013577   -0.00022285
     atom  113 type  3   force =    -0.00040544   -0.00063403    0.00001062
     atom  114 type  3   force =    -0.00045544   -0.00032685    0.00004032
     atom  115 type  3   force =    -0.00064557   -0.00023351    0.00010314
     atom  116 type  3   force =    -0.00054939   -0.00009389   -0.00022850
     atom  117 type  3   force =    -0.00041555   -0.00040652    0.00028258
     atom  118 type  3   force =    -0.00055113   -0.00054987    0.00063445
     atom  119 type  3   force =     0.00018688   -0.00021154   -0.00041693
     atom  120 type  3   force =    -0.00032212   -0.00075392   -0.00074549
     atom  121 type  3   force =     0.00011167    0.00007225   -0.00013502
     atom  122 type  3   force =     0.00068087   -0.00008238   -0.00009860
     atom  123 type  3   force =    -0.00002408    0.00014679    0.00003907
     atom  124 type  3   force =     0.00011436    0.00043763    0.00026601
     atom  125 type  3   force =     0.00067530   -0.00005273    0.00017549
     atom  126 type  3   force =    -0.00005916   -0.00004585   -0.00024682
     atom  127 type  3   force =     0.00004509    0.00029648    0.00000202
     atom  128 type  3   force =    -0.00050832    0.00027856    0.00047369
     atom  129 type  3   force =    -0.00028660   -0.00007776    0.00035113
     atom  130 type  3   force =    -0.00016505   -0.00015937    0.00003681
     atom  131 type  3   force =    -0.00030667    0.00001818   -0.00104422
     atom  132 type  3   force =    -0.00046193    0.00002770   -0.00026352
     atom  133 type  3   force =    -0.00025792   -0.00010828   -0.00019094
     atom  134 type  3   force =    -0.00012358    0.00002611   -0.00070943
     atom  135 type  3   force =    -0.00016017    0.00010436   -0.00063747
     atom  136 type  3   force =    -0.00027294    0.00001374   -0.00064221
     atom  137 type  3   force =    -0.00014834   -0.00039091   -0.00050963
     atom  138 type  3   force =    -0.00011845   -0.00011839   -0.00135291
     atom  139 type  3   force =    -0.00029374   -0.00004447   -0.00120711
     atom  140 type  3   force =    -0.00000575   -0.00010793   -0.00035284
     atom  141 type  3   force =    -0.00016468   -0.00007540   -0.00111638
     atom  142 type  3   force =    -0.00020731    0.00004182   -0.00188002
     atom  143 type  3   force =    -0.00028750    0.00017709   -0.00172041
     atom  144 type  3   force =    -0.00010093   -0.00018474   -0.00099099
     atom  145 type  3   force =    -0.00032261    0.00008024   -0.00137787
     atom  146 type  3   force =    -0.00028261   -0.00005240   -0.00187377
     atom  147 type  3   force =    -0.00037145    0.00021830   -0.00143959
     atom  148 type  3   force =    -0.00039977    0.00020589   -0.00082739
     atom  149 type  3   force =    -0.00009716    0.00015211   -0.00043965
     atom  150 type  3   force =    -0.00002779   -0.00038789   -0.00010781
     atom  151 type  3   force =    -0.00022429   -0.00022049    0.00005333
     atom  152 type  3   force =    -0.00008062    0.00019488    0.00093716
     atom  153 type  3   force =    -0.00029311   -0.00000412    0.00020657
     atom  154 type  3   force =     0.00040064   -0.00020084   -0.00045275
     atom  155 type  3   force =    -0.00029108   -0.00025865    0.00050531
     atom  156 type  3   force =     0.00000182    0.00004010   -0.00094505
     atom  157 type  3   force =     0.00007841    0.00016228   -0.00021394
     atom  158 type  3   force =     0.00027203    0.00000020   -0.00046600
     atom  159 type  3   force =     0.00006998    0.00010584   -0.00104481
     atom  160 type  3   force =    -0.00013185    0.00007869   -0.00085485
     atom  161 type  3   force =     0.00012823    0.00017081   -0.00067926
     atom  162 type  3   force =     0.00010441    0.00060597   -0.00048970
     atom  163 type  3   force =     0.00001870    0.00005181   -0.00163315
     atom  164 type  3   force =     0.00018347    0.00037175   -0.00163700
     atom  165 type  3   force =     0.00027641   -0.00003790   -0.00110341
     atom  166 type  3   force =     0.00017063   -0.00025807   -0.00195925
     atom  167 type  3   force =     0.00004123    0.00026558   -0.00205394
     atom  168 type  3   force =     0.00025648    0.00006320   -0.00173540
     atom  169 type  3   force =     0.00028065   -0.00017960   -0.00175002
     atom  170 type  3   force =     0.00031790    0.00017420   -0.00130929
     atom  171 type  3   force =     0.00008470   -0.00001530   -0.00087005
     atom  172 type  3   force =     0.00024624   -0.00001751   -0.00076921
     atom  173 type  3   force =     0.00046676    0.00028936    0.00100913
     atom  174 type  3   force =     0.00025601    0.00037339    0.00004974
     atom  175 type  3   force =    -0.00008041    0.00017435   -0.00068401
     atom  176 type  3   force =     0.00039315   -0.00000674   -0.00129142

     Total force =     0.007711     Total SCF correction =     0.000219

     bfgs converged in  33 scf cycles and  32 bfgs steps
     (criteria: energy <  1.0E-04 Ry, force <  1.0E-02 Ry/Bohr)

     End of BFGS Geometry Optimization

     Final energy   =   -9449.7402768522 Ry
Begin final coordinates

ATOMIC_POSITIONS (crystal)
V        0.331706205   0.181990763   0.219848533
V        0.999493173   0.851250004   0.221359276
V        0.667222248   0.518503856   0.221006520
V        0.152703275   0.807432761   0.254581715
V        0.818917148   0.471324079   0.254237575
V        0.485236457   0.139719301   0.253943355
V        0.164230645   0.526558773   0.253965079
V        0.832177388   0.192334478   0.253012568
V        0.501334587   0.863896216   0.254106756
V        0.318422554   0.468014547   0.251324320
V        0.986379471   0.145175154   0.221836709
V        0.650819210   0.807243474   0.223319967
V        0.330506110   0.187657740   0.351376980    0   0   0
V        0.997284420   0.854401840   0.351304520    0   0   0
V        0.663651710   0.520764830   0.351254970    0   0   0
V        0.148925770   0.809495250   0.386468370    0   0   0
V        0.815592870   0.476215340   0.386381710    0   0   0
V        0.482303510   0.142903530   0.386514520    0   0   0
V        0.165966980   0.518457800   0.386384710    0   0   0
V        0.832487640   0.184836750   0.386566170    0   0   0
V        0.499121230   0.851445580   0.386325480    0   0   0
V        0.317491800   0.473325230   0.351200600    0   0   0
V        0.984206490   0.140102520   0.351372830    0   0   0
V        0.651133840   0.807022160   0.351242580    0   0   0
O        0.163803669   0.990551596   0.237819269
O        0.830330308   0.652462861   0.237407628
O        0.495868417   0.322150865   0.235983805
O        0.321943457   0.006092035   0.238112620
O        0.990033267   0.670450189   0.238662754
O        0.654662194   0.335211269   0.238163823
O        0.329622516   0.651537973   0.239933837
O        0.996881906   0.328937682   0.237209331
O        0.661267372   0.993325487   0.236795828
O        0.154441780   0.339196620   0.241277987
O        0.821788638   0.010650981   0.236154507
O        0.489608207   0.673010263   0.243876056
O        0.992823676   0.155112220   0.175618745
O        0.641268113   0.798328322   0.177223628
O        0.165527784   0.540782041   0.299836183
O        0.834211258   0.206915802   0.298845010
O        0.505561654   0.883628819   0.299870476
O        0.150488864   0.790651191   0.300327887
O        0.815819802   0.453950732   0.300025283
O        0.482583049   0.123490227   0.299733558
O        0.164336538   0.672302578   0.233100333
O        0.825494361   0.332373374   0.232239004
O        0.485395046  -0.007617777   0.232855931
O        0.322707947   0.334498919   0.229600009
O        0.989737389  -0.005091252   0.234317724
O        0.662999754   0.666713253   0.235706019
O        0.329146418   0.169871067   0.173875780
O        1.000299988   0.847098945   0.175170016
O        0.670919943   0.520334459   0.174796611
O        0.160121590   0.989384010   0.366098470    0   0   0
O        0.826691550   0.655819710   0.365786070    0   0   0
O        0.493374610   0.322639310   0.366097380    0   0   0
O        0.319025180   0.009724960   0.371333610    0   0   0
O        0.985697730   0.676418320   0.371216180    0   0   0
O        0.652270930   0.342963800   0.371211520    0   0   0
O        0.329097370   0.651480560   0.371028550    0   0   0
O        0.995743670   0.318025400   0.371358350    0   0   0
O        0.662534420   0.984793950   0.371256090    0   0   0
O        0.154692040   0.338492790   0.365983300    0   0   0
O        0.821394290   0.005111330   0.366129120    0   0   0
O        0.488063540   0.671917200   0.365711060    0   0   0
O        0.315841700   0.465647430   0.305635670    0   0   0
O        0.982702520   0.133149500   0.305813000    0   0   0
O        0.650664640   0.800880490   0.305678720    0   0   0
O        0.166768110   0.509392030   0.431571530    0   0   0
O        0.832669290   0.175043530   0.431752910    0   0   0
O        0.499032820   0.840856750   0.431500380    0   0   0
O        0.148437300   0.818719620   0.431658610    0   0   0
O        0.815336750   0.486374530   0.431557490    0   0   0
O        0.482143290   0.152725030   0.431699710    0   0   0
O        0.157355700   0.663889720   0.375615710    0   0   0
O        0.824131450   0.330562670   0.375771520    0   0   0
O        0.490791170   0.997303910   0.375735230    0   0   0
O        0.324079360   0.330697350   0.368210930    0   0   0
O        0.990726570   0.997157860   0.368218280    0   0   0
O        0.657396410   0.663895610   0.368146130    0   0   0
O        0.331698470   0.194322570   0.305820800    0   0   0
O        0.998985750   0.861655500   0.305741140    0   0   0
O        0.664108260   0.526791010   0.305689110    0   0   0
O        0.387470269   0.554688697   0.150369398
C        0.323682031   0.840488051   0.105308010
C        0.192924892   0.057112049   0.098112273
C        0.233815227   0.313156639   0.103672822
C        0.018737259   0.013163580   0.096787475
C        0.278379389   0.579605523   0.107911764
C        0.062402700   0.274746162   0.100609264
C        0.844962868   0.970442068   0.097659181
C        0.106165983   0.536464227   0.103402823
C        0.889169641   0.232141211   0.101587626
C        0.671867837   0.928142402   0.102625185
C        0.149813768   0.797147462   0.101170087
C        0.932394398   0.492941963   0.102476527
C        0.715218992   0.188659032   0.104585093
C        0.498451910   0.884465039   0.108333243
C        0.975634562   0.752918148   0.097732611
C        0.758356345   0.449038191   0.100415549
C        0.541211177   0.145044140   0.103508183
C        0.801660140   0.709305933   0.095921081
C        0.584312322   0.404905380   0.097352826
C        0.367162179   0.100812764   0.099629299
C        0.627831957   0.665634143   0.098468957
C        0.411172419   0.362348416   0.100666506
C        0.457418949   0.624083224   0.113359692
C        0.236626024   0.984737806   0.099254354
C        0.279338600   0.244785455   0.100973602
C        0.062632711   0.941163576   0.096812976
C        0.319573104   0.501137415   0.113492582
C        0.105624217   0.201050201   0.099740635
C        0.888455796   0.897444841   0.096269718
C        0.149514054   0.463437163   0.103749805
C        0.932605574   0.159400954   0.099301602
C        0.715208228   0.854870312   0.099271485
C        0.193226789   0.724439319   0.103736240
C        0.975818741   0.420183037   0.102722774
C        0.758894603   0.116357229   0.102916358
C        0.019265029   0.680887295   0.100562732
C        0.801916538   0.376771598   0.102921888
C        0.584709521   0.072481975   0.105977181
C        0.845234315   0.636819461   0.097595570
C        0.627810447   0.332448968   0.100106251
C        0.410532815   0.028558413   0.102946890
C        0.671233769   0.592933789   0.096058982
C        0.454080465   0.288973486   0.098177909
C        0.498932056   0.548890804   0.102972004
C        0.543703346   0.815290052   0.107502934
C        0.366360788   0.766786355   0.108290679
C        0.321212260   0.156885610   0.001655230    0   0   0
C        0.190768100   0.374254910   0.001552990    0   0   0
C        0.234243470   0.635131920   0.002312530    0   0   0
C        0.016846530   0.330773110   0.002032650    0   0   0
C        0.277723170   0.896010930   0.002379760    0   0   0
C        0.060331320   0.591658670   0.002491920    0   0   0
C        0.842941550   0.287314450   0.002424820    0   0   0
C        0.103815610   0.852542070   0.001984390    0   0   0
C        0.886419290   0.548185310   0.002293790    0   0   0
C        0.669026660   0.243839540   0.002463130    0   0   0
C        0.147299760   0.113406210   0.001333400    0   0   0
C        0.929905030   0.809054770   0.001531610    0   0   0
C        0.712503040   0.504694910   0.001830000    0   0   0
C        0.495119600   0.200371840   0.002131170    0   0   0
C        0.973381210   0.069918610   0.001356890    0   0   0
C        0.755993580   0.765576760   0.001306650    0   0   0
C        0.538595990   0.461216140   0.001406940    0   0   0
C        0.799463290   0.026430140   0.001705300    0   0   0
C        0.582080410   0.722093790   0.001428040    0   0   0
C        0.364683660   0.417744870   0.001297060    0   0   0
C        0.625549080   0.982954240   0.002180210    0   0   0
C        0.408152470   0.678603210   0.001857240    0   0   0
C        0.451640100   0.939480860   0.002466810    0   0   0
C        0.234183110   0.301525320   0.001326260    0   0   0
C        0.277657590   0.562381980   0.001921710    0   0   0
C        0.060263910   0.258030270   0.001624330    0   0   0
C        0.321124300   0.823251770   0.002490750    0   0   0
C        0.103730080   0.518897260   0.002362490    0   0   0
C        0.886344650   0.214546000   0.002105370    0   0   0
C        0.147223900   0.779789370   0.002361420    0   0   0
C        0.929820540   0.475432260   0.002505060    0   0   0
C        0.712421990   0.171059680   0.002460820    0   0   0
C        0.190709030   0.040658520   0.001630980    0   0   0
C        0.973306060   0.736304900   0.001950530    0   0   0
C        0.755919530   0.431977370   0.002256040    0   0   0
C        0.016807270   0.997192160   0.001340980    0   0   0
C        0.799403330   0.692821740   0.001504180    0   0   0
C        0.582008770   0.388484820   0.001776100    0   0   0
C        0.842887930   0.953707140   0.001400800    0   0   0
C        0.625490320   0.649344160   0.001301950    0   0   0
C        0.408106360   0.345004940   0.001389420    0   0   0
C        0.668964960   0.910213020   0.001771250    0   0   0
C        0.451568890   0.605854230   0.001477050    0   0   0
C        0.495041120   0.866728140   0.002236740    0   0   0
C        0.538528800   0.127618280   0.002454000    0   0   0
C        0.364614730   0.084148470   0.002096190    0   0   0
End final coordinates



     Writing output data file interface.save/

     init_run     :    887.15s CPU    894.50s WALL (       1 calls)
     electrons    : *********s CPU *********s WALL (      33 calls)
     update_pot   :    690.21s CPU    723.07s WALL (      32 calls)
     forces       :  26869.92s CPU  27087.52s WALL (      33 calls)

     Called by init_run:
     wfcinit      :    845.76s CPU    850.80s WALL (       1 calls)
     potinit      :     11.31s CPU     12.18s WALL (       1 calls)
     hinit0       :      7.75s CPU      7.86s WALL (       1 calls)

     Called by electrons:
     c_bands      : *********s CPU *********s WALL (     436 calls)
     sum_band     : 101387.12s CPU 102865.85s WALL (     436 calls)
     v_of_rho     :   3560.35s CPU   4013.36s WALL (     452 calls)
     newd         :  10124.39s CPU  10726.29s WALL (     452 calls)
     PAW_pot      :    809.21s CPU    810.73s WALL (     484 calls)
     mix_rho      :   3069.11s CPU   3217.00s WALL (     436 calls)

     Called by c_bands:
     init_us_2    :    599.95s CPU    601.82s WALL (    3752 calls)
     cegterg      : *********s CPU *********s WALL (    1745 calls)

     Called by sum_band:
     sum_band:bec :     88.01s CPU     88.23s WALL (    1872 calls)
     addusdens    :  11457.73s CPU  12115.75s WALL (     436 calls)

     Called by *egterg:
     h_psi        : 396060.07s CPU 399781.04s WALL (    8829 calls)
     s_psi        : 166037.55s CPU 166529.75s WALL (    8829 calls)
     g_psi        :     72.39s CPU     72.69s WALL (    7080 calls)
     cdiaghg      :  63559.58s CPU  64252.20s WALL (    8629 calls)

     Called by h_psi:
     h_psi:pot    : 395933.77s CPU 399463.06s WALL (    8829 calls)
     h_psi:calbec : 178742.66s CPU 179371.51s WALL (    8829 calls)
     vloc_psi     :  44295.02s CPU  46681.77s WALL (    8829 calls)
     add_vuspsi   : 172895.74s CPU 173409.66s WALL (    8829 calls)

     General routines
     calbec       : 285336.70s CPU 286345.38s WALL (   11229 calls)
     fft          :   4651.93s CPU   4763.45s WALL (   30472 calls)
     ffts         :   1896.16s CPU   2034.29s WALL (  135324 calls)
     fftw         :  48348.89s CPU  51191.29s WALL ( 6160530 calls)
     interpolate  :     49.61s CPU     51.59s WALL (     452 calls)

     Parallel routines
     fft_scatt_xy :   6319.15s CPU   6404.52s WALL ( 6326326 calls)
     fft_scatt_yz :  28272.66s CPU  31026.52s WALL ( 6326326 calls)

     PWSCF        :  13d11h29m CPU  13d14h12m WALL


   This run was terminated on:  15:34:55  25Mar2024            

=------------------------------------------------------------------------------=
   JOB DONE.
=------------------------------------------------------------------------------=
