
     Program PWSCF v.6.4.1 starts on 27Oct2024 at  0:31:12 

     This program is part of the open-source Quantum ESPRESSO suite
     for quantum simulation of materials; please cite
         "P. Giannozzi et al., J. Phys.:Condens. Matter 21 395502 (2009);
         "P. Giannozzi et al., J. Phys.:Condens. Matter 29 465901 (2017);
          URL http://www.quantum-espresso.org", 
     in publications or presentations arising from this work. More details at
     http://www.quantum-espresso.org/quote

     Parallel version (MPI), running on    32 processors

     MPI processes distributed on     1 nodes
     R & G space division:  proc/nbgrp/npool/nimage =      32
     Reading input from v2o5.vc-rlx.in

     Current dimensions of program PWSCF are:
     Max number of different atomic species (ntypx) = 10
     Max number of k-points (npk) =  40000
     Max angular momentum in pseudopotentials (lmaxx) =  3

     Subspace diagonalization in iterative solution of the eigenvalue problem:
     one sub-group per band group will be used
     ELPA distributed-memory algorithm (size of sub-group:  4*  4 procs)


     Parallelization info
     --------------------
     sticks:   dense  smooth     PW     G-vecs:    dense   smooth      PW
     Min          70      70     18                 7168     7168     984
     Max          71      71     19                 7183     7183    1001
     Sum        2267    2267    599               229611   229611   31777



     bravais-lattice index     =            8
     lattice parameter (alat)  =       6.7390  a.u.
     unit-cell volume          =    1292.0191 (a.u.)^3
     number of atoms/cell      =           14
     number of atomic types    =            2
     number of electrons       =       112.00
     number of Kohn-Sham states=           56
     kinetic-energy cutoff     =     120.0000  Ry
     charge density cutoff     =     480.0000  Ry
     convergence threshold     =      1.0E-10
     mixing beta               =       0.7000
     number of iterations used =            8  plain     mixing
     Exchange-correlation      = PBE ( 1  4  3  4 0 0)
     nstep                     =          500


     celldm(1)=   6.739037  celldm(2)=   1.305053  celldm(3)=   3.234797
     celldm(4)=   0.000000  celldm(5)=   0.000000  celldm(6)=   0.000000

     crystal axes: (cart. coord. in units of alat)
               a(1) = (   1.000000   0.000000   0.000000 )  
               a(2) = (   0.000000   1.305053   0.000000 )  
               a(3) = (   0.000000   0.000000   3.234797 )  

     reciprocal axes: (cart. coord. in units 2 pi/alat)
               b(1) = (  1.000000  0.000000  0.000000 )  
               b(2) = (  0.000000  0.766252  0.000000 )  
               b(3) = (  0.000000  0.000000  0.309138 )  


     PseudoPot. # 1 for V  read from file:
     /home/mpicuntureo/pseudos/v.nc.upf
     MD5 check sum: 40fb93c06b4f9d8c28c5ccd071294a04
     Pseudo is Norm-conserving + core correction, Zval = 13.0
     Generated using ONCVPSP code by D. R. Hamann
     Using radial grid of 1536 points,  6 beta functions with: 
                l(1) =   0
                l(2) =   0
                l(3) =   1
                l(4) =   1
                l(5) =   2
                l(6) =   2

     PseudoPot. # 2 for O  read from file:
     /home/mpicuntureo/pseudos/o.nc.upf
     MD5 check sum: 3e3f909f7470e8921608ab6b1f57bbae
     Pseudo is Norm-conserving + core correction, Zval =  6.0
     Generated using ONCVPSP code by D. R. Hamann
     Using radial grid of  936 points,  5 beta functions with: 
                l(1) =   0
                l(2) =   0
                l(3) =   1
                l(4) =   1
                l(5) =   2

     atomic species   valence    mass     pseudopotential
        V             13.00    50.94150     V ( 1.00)
        O              6.00    15.99940     O ( 1.00)

      8 Sym. Ops., with inversion, found ( 4 have fractional translation)



   Cartesian axes

     site n.     atom                  positions (alat units)
         1           V   tau(   1) = (   0.0000000   0.5083364   2.0974168  )
         2           V   tau(   2) = (   0.5000000   0.7967171   2.7547787  )
         3           V   tau(   3) = (   0.5000000   0.7967171   0.4800183  )
         4           V   tau(   4) = (   0.0000000   0.5083364   1.1373802  )
         5           O   tau(   5) = (   0.5000000   0.6417612   2.2044959  )
         6           O   tau(   6) = (   0.0000000   0.6632922   2.6476996  )
         7           O   tau(   7) = (   0.0000000   0.6632922   0.5870974  )
         8           O   tau(   8) = (   0.5000000   0.6417612   1.0303011  )
         9           O   tau(   9) = (   0.0000000   0.0653588   1.1513562  )
        10           O   tau(  10) = (   0.5000000   1.2396946   0.4660423  )
        11           O   tau(  11) = (   0.5000000   1.2396946   2.7687547  )
        12           O   tau(  12) = (   0.5000000   0.6542617   0.0000000  )
        13           O   tau(  13) = (   0.0000000   0.6507917   1.6173985  )
        14           O   tau(  14) = (   0.0000000   0.0653588   2.0834408  )

     number of k points=     4
                       cart. coord. in units 2pi/alat
        k(    1) = (   0.0000000   0.0000000   0.0000000), wk =   0.2222222
        k(    2) = (   0.0000000   0.2554174   0.0000000), wk =   0.4444444
        k(    3) = (   0.3333333   0.0000000   0.0000000), wk =   0.4444444
        k(    4) = (   0.3333333   0.2554174   0.0000000), wk =   0.8888889

     Dense  grid:   229611 G-vectors     FFT dimensions: (  48,  64, 160)

     Estimated max dynamical RAM per process >      24.83 MB

     Estimated total dynamical RAM >     794.66 MB

     Initial potential from superposition of free atoms

     starting charge  111.99579, renormalised to  112.00000
     Starting wfcs are   80 randomized atomic wfcs

     total cpu time spent up to now is        4.8 secs

     Self-consistent Calculation

     iteration #  1     ecut=   120.00 Ry     beta= 0.70
     Davidson diagonalization with overlap
     ethr =  1.00E-02,  avg # of iterations =  2.0

     total cpu time spent up to now is        7.0 secs

     total energy              =    -917.31119546 Ry
     Harris-Foulkes estimate   =    -923.49882095 Ry
     estimated scf accuracy    <       7.76503854 Ry

     iteration #  2     ecut=   120.00 Ry     beta= 0.70
     Davidson diagonalization with overlap
     ethr =  6.93E-03,  avg # of iterations =  6.2

     total cpu time spent up to now is       12.7 secs

     total energy              =    -907.87000401 Ry
     Harris-Foulkes estimate   =    -938.68966885 Ry
     estimated scf accuracy    <     139.29151515 Ry

     iteration #  3     ecut=   120.00 Ry     beta= 0.70
     Davidson diagonalization with overlap
     ethr =  6.93E-03,  avg # of iterations =  5.8

     total cpu time spent up to now is       19.1 secs

     total energy              =    -921.74061634 Ry
     Harris-Foulkes estimate   =    -922.59504040 Ry
     estimated scf accuracy    <       2.80643372 Ry

     iteration #  4     ecut=   120.00 Ry     beta= 0.70
     Davidson diagonalization with overlap
     ethr =  2.51E-03,  avg # of iterations =  4.0

     total cpu time spent up to now is       21.7 secs

     total energy              =    -921.95152161 Ry
     Harris-Foulkes estimate   =    -922.08790844 Ry
     estimated scf accuracy    <       0.83347862 Ry

     iteration #  5     ecut=   120.00 Ry     beta= 0.70
     Davidson diagonalization with overlap
     ethr =  7.44E-04,  avg # of iterations =  3.8

     total cpu time spent up to now is       24.1 secs

     total energy              =    -921.88877247 Ry
     Harris-Foulkes estimate   =    -922.01016341 Ry
     estimated scf accuracy    <       0.44899719 Ry

     iteration #  6     ecut=   120.00 Ry     beta= 0.70
     Davidson diagonalization with overlap
     ethr =  4.01E-04,  avg # of iterations =  4.2

     total cpu time spent up to now is       26.9 secs

     total energy              =    -922.01144290 Ry
     Harris-Foulkes estimate   =    -922.01828861 Ry
     estimated scf accuracy    <       0.13374249 Ry

     iteration #  7     ecut=   120.00 Ry     beta= 0.70
     Davidson diagonalization with overlap
     ethr =  1.19E-04,  avg # of iterations =  3.5

     total cpu time spent up to now is       28.3 secs

     total energy              =    -921.99244584 Ry
     Harris-Foulkes estimate   =    -922.01541163 Ry
     estimated scf accuracy    <       0.12435025 Ry

     iteration #  8     ecut=   120.00 Ry     beta= 0.70
     Davidson diagonalization with overlap
     ethr =  1.11E-04,  avg # of iterations =  2.8

     total cpu time spent up to now is       31.3 secs

     total energy              =    -921.98959509 Ry
     Harris-Foulkes estimate   =    -921.99867895 Ry
     estimated scf accuracy    <       0.04223093 Ry

     iteration #  9     ecut=   120.00 Ry     beta= 0.70
     Davidson diagonalization with overlap
     ethr =  3.77E-05,  avg # of iterations =  4.0

     total cpu time spent up to now is       34.4 secs

     total energy              =    -922.00301308 Ry
     Harris-Foulkes estimate   =    -922.00424860 Ry
     estimated scf accuracy    <       0.01656378 Ry

     iteration # 10     ecut=   120.00 Ry     beta= 0.70
     Davidson diagonalization with overlap
     ethr =  1.48E-05,  avg # of iterations =  2.5

     total cpu time spent up to now is       36.3 secs

     total energy              =    -921.99980655 Ry
     Harris-Foulkes estimate   =    -922.00324842 Ry
     estimated scf accuracy    <       0.01399420 Ry

     iteration # 11     ecut=   120.00 Ry     beta= 0.70
     Davidson diagonalization with overlap
     ethr =  1.25E-05,  avg # of iterations =  4.0

     total cpu time spent up to now is       38.6 secs

     total energy              =    -922.00145236 Ry
     Harris-Foulkes estimate   =    -922.00161878 Ry
     estimated scf accuracy    <       0.00091594 Ry

     iteration # 12     ecut=   120.00 Ry     beta= 0.70
     Davidson diagonalization with overlap
     ethr =  8.18E-07,  avg # of iterations =  5.0

     total cpu time spent up to now is       41.0 secs

     total energy              =    -922.00177689 Ry
     Harris-Foulkes estimate   =    -922.00178230 Ry
     estimated scf accuracy    <       0.00003884 Ry

     iteration # 13     ecut=   120.00 Ry     beta= 0.70
     Davidson diagonalization with overlap
     ethr =  3.47E-08,  avg # of iterations =  4.5

     total cpu time spent up to now is       43.2 secs

     total energy              =    -922.00178501 Ry
     Harris-Foulkes estimate   =    -922.00178574 Ry
     estimated scf accuracy    <       0.00000801 Ry

     iteration # 14     ecut=   120.00 Ry     beta= 0.70
     Davidson diagonalization with overlap
     ethr =  7.15E-09,  avg # of iterations =  3.8

     total cpu time spent up to now is       44.8 secs

     total energy              =    -922.00178513 Ry
     Harris-Foulkes estimate   =    -922.00178583 Ry
     estimated scf accuracy    <       0.00000439 Ry

     iteration # 15     ecut=   120.00 Ry     beta= 0.70
     Davidson diagonalization with overlap
     ethr =  3.92E-09,  avg # of iterations =  4.0

     total cpu time spent up to now is       46.7 secs

     total energy              =    -922.00178545 Ry
     Harris-Foulkes estimate   =    -922.00178555 Ry
     estimated scf accuracy    <       0.00000081 Ry

     iteration # 16     ecut=   120.00 Ry     beta= 0.70
     Davidson diagonalization with overlap
     ethr =  7.21E-10,  avg # of iterations =  4.5

     total cpu time spent up to now is       48.6 secs

     total energy              =    -922.00178567 Ry
     Harris-Foulkes estimate   =    -922.00178567 Ry
     estimated scf accuracy    <          8.5E-09 Ry

     iteration # 17     ecut=   120.00 Ry     beta= 0.70
     Davidson diagonalization with overlap
     ethr =  7.59E-12,  avg # of iterations =  5.5

     total cpu time spent up to now is       51.7 secs

     total energy              =    -922.00178567 Ry
     Harris-Foulkes estimate   =    -922.00178568 Ry
     estimated scf accuracy    <       0.00000004 Ry

     iteration # 18     ecut=   120.00 Ry     beta= 0.70
     Davidson diagonalization with overlap
     ethr =  7.59E-12,  avg # of iterations =  5.0

     total cpu time spent up to now is       54.8 secs

     total energy              =    -922.00178568 Ry
     Harris-Foulkes estimate   =    -922.00178568 Ry
     estimated scf accuracy    <          2.6E-09 Ry

     iteration # 19     ecut=   120.00 Ry     beta= 0.70
     Davidson diagonalization with overlap
     ethr =  2.34E-12,  avg # of iterations =  4.0

     total cpu time spent up to now is       56.9 secs

     total energy              =    -922.00178568 Ry
     Harris-Foulkes estimate   =    -922.00178568 Ry
     estimated scf accuracy    <          4.2E-09 Ry

     iteration # 20     ecut=   120.00 Ry     beta= 0.70
     Davidson diagonalization with overlap
     ethr =  2.34E-12,  avg # of iterations =  1.0

     total cpu time spent up to now is       58.2 secs

     total energy              =    -922.00178568 Ry
     Harris-Foulkes estimate   =    -922.00178568 Ry
     estimated scf accuracy    <          2.7E-09 Ry

     iteration # 21     ecut=   120.00 Ry     beta= 0.70
     Davidson diagonalization with overlap
     ethr =  2.34E-12,  avg # of iterations =  1.0

     total cpu time spent up to now is       59.4 secs

     total energy              =    -922.00178568 Ry
     Harris-Foulkes estimate   =    -922.00178568 Ry
     estimated scf accuracy    <          1.8E-09 Ry

     iteration # 22     ecut=   120.00 Ry     beta= 0.70
     Davidson diagonalization with overlap
     ethr =  1.58E-12,  avg # of iterations =  4.0

     total cpu time spent up to now is       60.9 secs

     total energy              =    -922.00178568 Ry
     Harris-Foulkes estimate   =    -922.00178568 Ry
     estimated scf accuracy    <          1.9E-10 Ry

     iteration # 23     ecut=   120.00 Ry     beta= 0.70
     Davidson diagonalization with overlap
     ethr =  1.67E-13,  avg # of iterations =  5.0

     total cpu time spent up to now is       63.7 secs

     total energy              =    -922.00178568 Ry
     Harris-Foulkes estimate   =    -922.00178568 Ry
     estimated scf accuracy    <          5.2E-10 Ry

     iteration # 24     ecut=   120.00 Ry     beta= 0.70
     Davidson diagonalization with overlap
     ethr =  1.67E-13,  avg # of iterations =  3.2

     total cpu time spent up to now is       65.7 secs

     total energy              =    -922.00178568 Ry
     Harris-Foulkes estimate   =    -922.00178568 Ry
     estimated scf accuracy    <          1.4E-10 Ry

     iteration # 25     ecut=   120.00 Ry     beta= 0.70
     Davidson diagonalization with overlap
     ethr =  1.24E-13,  avg # of iterations =  3.2

     total cpu time spent up to now is       67.4 secs

     End of self-consistent calculation

          k = 0.0000 0.0000 0.0000 ( 28709 PWs)   bands (ev):

   -60.5115 -60.5095 -60.5003 -60.4983 -34.5504 -34.5480 -34.5400 -34.5348
   -34.4479 -34.3953 -34.3689 -34.3446 -34.3421 -34.3185 -34.3087 -34.3062
   -14.0337 -13.9142 -12.9434 -12.8413 -12.7634 -12.7030 -12.3164 -12.3096
   -12.1671 -12.1602  -0.9498  -0.9378  -0.8261  -0.7462  -0.5781  -0.1723
     0.4758   0.5802   0.7421   0.8364   1.0457   1.0972   1.2571   1.2706
     1.3548   1.3928   1.5543   1.6266   1.6935   1.7605   1.8663   1.8943
     2.1208   2.3178   2.4989   2.5267   2.6241   2.8089   2.8351   2.9046

          k = 0.0000 0.2554 0.0000 ( 28665 PWs)   bands (ev):

   -60.5115 -60.5095 -60.5003 -60.4983 -34.5512 -34.5487 -34.5418 -34.5365
   -34.4477 -34.3951 -34.3689 -34.3445 -34.3420 -34.3185 -34.3087 -34.3062
   -13.9863 -13.8745 -12.9034 -12.8271 -12.7602 -12.6875 -12.3286 -12.3035
   -12.1619 -12.1312  -0.9779  -0.9656  -0.8493  -0.7773  -0.7074  -0.3476
    -0.1858   0.0608   0.1197   0.2130   0.7638   0.8503   0.9159   1.2994
     1.3573   1.5563   1.7182   1.7771   1.9297   1.9702   2.0956   2.2218
     2.4663   2.4820   2.4916   2.6530   2.7003   2.9425   2.9845   3.1074

          k = 0.3333 0.0000 0.0000 ( 28670 PWs)   bands (ev):

   -60.5071 -60.5052 -60.5016 -60.4996 -34.5445 -34.5421 -34.5382 -34.5342
   -34.4450 -34.4193 -34.4053 -34.3969 -34.3484 -34.3432 -34.3276 -34.3168
   -13.4706 -13.3368 -12.8544 -12.7219 -12.7015 -12.6596 -12.2536 -12.2521
   -12.2081 -12.1857  -1.4472  -1.3738  -0.5971  -0.5851  -0.4726  -0.1393
    -0.0383   0.3125   0.3194   0.6069   0.6492   0.7156   1.0551   1.1621
     1.2112   1.3317   1.3480   1.4570   1.5128   1.6051   1.7506   1.7878
     1.8417   2.2339   2.5671   2.6302   2.7607   2.9402   3.0892   3.0893

          k = 0.3333 0.2554 0.0000 ( 28681 PWs)   bands (ev):

   -60.5071 -60.5052 -60.5015 -60.4996 -34.5455 -34.5431 -34.5397 -34.5357
   -34.4448 -34.4192 -34.4051 -34.3967 -34.3484 -34.3432 -34.3276 -34.3169
   -13.4293 -13.3070 -12.8283 -12.7201 -12.6880 -12.6462 -12.2586 -12.2375
   -12.1751 -12.1508  -1.4467  -1.3723  -0.6478  -0.6279  -0.5634  -0.2601
    -0.1963  -0.0820   0.0281   0.2333   0.3190   0.4232   0.8359   0.8668
     0.8954   0.9951   1.1270   1.2180   1.2999   1.7113   1.9820   2.1675
     2.3930   2.4497   2.7791   3.0082   3.0212   3.1738   3.2172   3.2485

     highest occupied level (ev):     3.2485

!    total energy              =    -922.00178568 Ry
     Harris-Foulkes estimate   =    -922.00178568 Ry
     estimated scf accuracy    <          8.7E-11 Ry

     The total energy is the sum of the following terms:

     one-electron contribution =    -624.65575090 Ry
     hartree contribution      =     349.46031613 Ry
     xc contribution           =    -174.01732836 Ry
     ewald contribution        =    -472.78902255 Ry

     convergence has been achieved in  25 iterations

     Forces acting on atoms (cartesian axes, Ry/au):

     atom    1 type  1   force =     0.00000000   -0.00009760    0.00000354
     atom    2 type  1   force =     0.00000000    0.00009760   -0.00000354
     atom    3 type  1   force =    -0.00000000    0.00009760    0.00000354
     atom    4 type  1   force =     0.00000000   -0.00009760   -0.00000354
     atom    5 type  2   force =     0.00000000   -0.00000416   -0.00000922
     atom    6 type  2   force =     0.00000000    0.00000416    0.00000922
     atom    7 type  2   force =     0.00000000    0.00000416   -0.00000922
     atom    8 type  2   force =     0.00000000   -0.00000416    0.00000922
     atom    9 type  2   force =     0.00000000    0.00010963   -0.00001001
     atom   10 type  2   force =     0.00000000   -0.00010963    0.00001001
     atom   11 type  2   force =     0.00000000   -0.00010963   -0.00001001
     atom   12 type  2   force =     0.00000000    0.00001013   -0.00000000
     atom   13 type  2   force =     0.00000000   -0.00001013    0.00000000
     atom   14 type  2   force =     0.00000000    0.00010963    0.00001001

     Total force =     0.000295     Total SCF correction =     0.000017


     Computing stress (Cartesian axis) and pressure

          total   stress  (Ry/bohr**3)                   (kbar)     P=    3.95
   0.00002215   0.00000000   0.00000000          3.26      0.00      0.00
   0.00000000   0.00004007   0.00000000          0.00      5.90      0.00
   0.00000000   0.00000000   0.00001829          0.00      0.00      2.69


     BFGS Geometry Optimization

     number of scf cycles    =   1
     number of bfgs steps    =   0

     enthalpy new            =    -922.0017856789 Ry

     new trust radius        =       0.0072023989 bohr
     new conv_thr            =            1.0E-10 Ry

     new unit-cell volume =   1294.62123 a.u.^3 (   191.84307 Ang^3 )
     density =      3.14860 g/cm^3

CELL_PARAMETERS (alat=  6.73903744)
   1.000553686   0.000000000   0.000000000
   0.000000000   1.306360941   0.000000000
   0.000000000   0.000000000   3.236275863

ATOMIC_POSITIONS (crystal)
V        0.000000000   0.389502726   0.648392267
V        0.500000002   0.610497278   0.851607739
V        0.500000002   0.610497278   0.148392266
V        0.000000000   0.389502726   0.351607736
O        0.500000002   0.491750460   0.681493924
O        0.000000000   0.508249545   0.818506081
O        0.000000000   0.508249545   0.181493923
O        0.500000002   0.491750460   0.318506079
O        0.000000000   0.050093790   0.355927969
O        0.500000002   0.949906214   0.144072034
O        0.500000002   0.949906214   0.855927970
O        0.500000002   0.501330596  -0.000000000
O        0.000000000   0.498669408   0.500000002
O        0.000000000   0.050093790   0.644072037



     Writing output data file v2o5.save/
     NEW-OLD atomic charge density approx. for the potential
     extrapolated charge  112.22511, renormalised to  112.00000

     total cpu time spent up to now is       72.8 secs

     Self-consistent Calculation

     iteration #  1     ecut=   120.00 Ry     beta= 0.70
     Davidson diagonalization with overlap
     ethr =  1.00E-06,  avg # of iterations =  6.5

     total cpu time spent up to now is       76.6 secs

     total energy              =    -921.98747862 Ry
     Harris-Foulkes estimate   =    -920.96842820 Ry
     estimated scf accuracy    <       0.01392921 Ry

     iteration #  2     ecut=   120.00 Ry     beta= 0.70
     Davidson diagonalization with overlap
     ethr =  1.24E-05,  avg # of iterations =  6.0

     total cpu time spent up to now is       79.7 secs

     total energy              =    -921.96918398 Ry
     Harris-Foulkes estimate   =    -922.05091731 Ry
     estimated scf accuracy    <       0.45158004 Ry

     iteration #  3     ecut=   120.00 Ry     beta= 0.70
     Davidson diagonalization with overlap
     ethr =  1.24E-05,  avg # of iterations =  5.0

     total cpu time spent up to now is       82.9 secs

     total energy              =    -922.00210889 Ry
     Harris-Foulkes estimate   =    -922.00314845 Ry
     estimated scf accuracy    <       0.00715626 Ry

     iteration #  4     ecut=   120.00 Ry     beta= 0.70
     Davidson diagonalization with overlap
     ethr =  6.39E-06,  avg # of iterations =  1.0

     total cpu time spent up to now is       84.1 secs

     total energy              =    -922.00164903 Ry
     Harris-Foulkes estimate   =    -922.00226203 Ry
     estimated scf accuracy    <       0.00489690 Ry

     iteration #  5     ecut=   120.00 Ry     beta= 0.70
     Davidson diagonalization with overlap
     ethr =  4.37E-06,  avg # of iterations =  2.2

     total cpu time spent up to now is       85.6 secs

     total energy              =    -922.00173765 Ry
     Harris-Foulkes estimate   =    -922.00179125 Ry
     estimated scf accuracy    <       0.00271481 Ry

     iteration #  6     ecut=   120.00 Ry     beta= 0.70
     Davidson diagonalization with overlap
     ethr =  2.42E-06,  avg # of iterations =  1.0

     total cpu time spent up to now is       86.7 secs

     total energy              =    -922.00177545 Ry
     Harris-Foulkes estimate   =    -922.00179385 Ry
     estimated scf accuracy    <       0.00236253 Ry

     iteration #  7     ecut=   120.00 Ry     beta= 0.70
     Davidson diagonalization with overlap
     ethr =  2.11E-06,  avg # of iterations =  1.0

     total cpu time spent up to now is       88.0 secs

     total energy              =    -922.00179248 Ry
     Harris-Foulkes estimate   =    -922.00180838 Ry
     estimated scf accuracy    <       0.00193963 Ry

     iteration #  8     ecut=   120.00 Ry     beta= 0.70
     Davidson diagonalization with overlap
     ethr =  1.73E-06,  avg # of iterations =  1.0

     total cpu time spent up to now is       89.1 secs

     total energy              =    -922.00178960 Ry
     Harris-Foulkes estimate   =    -922.00181845 Ry
     estimated scf accuracy    <       0.00169927 Ry

     iteration #  9     ecut=   120.00 Ry     beta= 0.70
     Davidson diagonalization with overlap
     ethr =  1.52E-06,  avg # of iterations =  1.0

     total cpu time spent up to now is       90.3 secs

     total energy              =    -922.00176553 Ry
     Harris-Foulkes estimate   =    -922.00181095 Ry
     estimated scf accuracy    <       0.00141943 Ry

     iteration # 10     ecut=   120.00 Ry     beta= 0.70
     Davidson diagonalization with overlap
     ethr =  1.27E-06,  avg # of iterations =  1.0

     total cpu time spent up to now is       91.4 secs

     total energy              =    -922.00151879 Ry
     Harris-Foulkes estimate   =    -922.00178671 Ry
     estimated scf accuracy    <       0.00114423 Ry

     iteration # 11     ecut=   120.00 Ry     beta= 0.70
     Davidson diagonalization with overlap
     ethr =  1.02E-06,  avg # of iterations =  4.8

     total cpu time spent up to now is       94.0 secs

     total energy              =    -922.00186528 Ry
     Harris-Foulkes estimate   =    -922.00188720 Ry
     estimated scf accuracy    <       0.00048540 Ry

     iteration # 12     ecut=   120.00 Ry     beta= 0.70
     Davidson diagonalization with overlap
     ethr =  4.33E-07,  avg # of iterations =  1.0

     total cpu time spent up to now is       95.3 secs

     total energy              =    -922.00188537 Ry
     Harris-Foulkes estimate   =    -922.00186955 Ry
     estimated scf accuracy    <       0.00042730 Ry

     iteration # 13     ecut=   120.00 Ry     beta= 0.70
     Davidson diagonalization with overlap
     ethr =  3.82E-07,  avg # of iterations =  1.0

     total cpu time spent up to now is       96.5 secs

     total energy              =    -922.00178373 Ry
     Harris-Foulkes estimate   =    -922.00188698 Ry
     estimated scf accuracy    <       0.00045888 Ry

     iteration # 14     ecut=   120.00 Ry     beta= 0.70
     Davidson diagonalization with overlap
     ethr =  3.82E-07,  avg # of iterations =  5.0

     total cpu time spent up to now is       99.5 secs

     total energy              =    -922.00171367 Ry
     Harris-Foulkes estimate   =    -922.00207134 Ry
     estimated scf accuracy    <       0.00132373 Ry

     iteration # 15     ecut=   120.00 Ry     beta= 0.70
     Davidson diagonalization with overlap
     ethr =  3.82E-07,  avg # of iterations =  5.0

     total cpu time spent up to now is      102.5 secs

     total energy              =    -922.00184229 Ry
     Harris-Foulkes estimate   =    -922.00186078 Ry
     estimated scf accuracy    <       0.00024717 Ry

     iteration # 16     ecut=   120.00 Ry     beta= 0.70
     Davidson diagonalization with overlap
     ethr =  2.21E-07,  avg # of iterations =  2.5

     total cpu time spent up to now is      104.4 secs

     total energy              =    -922.00184128 Ry
     Harris-Foulkes estimate   =    -922.00184980 Ry
     estimated scf accuracy    <       0.00020115 Ry

     iteration # 17     ecut=   120.00 Ry     beta= 0.70
     Davidson diagonalization with overlap
     ethr =  1.80E-07,  avg # of iterations =  1.0

     total cpu time spent up to now is      106.3 secs

     total energy              =    -922.00182744 Ry
     Harris-Foulkes estimate   =    -922.00184461 Ry
     estimated scf accuracy    <       0.00017712 Ry

     iteration # 18     ecut=   120.00 Ry     beta= 0.70
     Davidson diagonalization with overlap
     ethr =  1.58E-07,  avg # of iterations =  4.0

     total cpu time spent up to now is      108.8 secs

     total energy              =    -922.00183605 Ry
     Harris-Foulkes estimate   =    -922.00185323 Ry
     estimated scf accuracy    <       0.00015430 Ry

     iteration # 19     ecut=   120.00 Ry     beta= 0.70
     Davidson diagonalization with overlap
     ethr =  1.38E-07,  avg # of iterations =  4.0

     total cpu time spent up to now is      110.8 secs

     total energy              =    -922.00183483 Ry
     Harris-Foulkes estimate   =    -922.00184992 Ry
     estimated scf accuracy    <       0.00009739 Ry

     iteration # 20     ecut=   120.00 Ry     beta= 0.70
     Davidson diagonalization with overlap
     ethr =  8.70E-08,  avg # of iterations =  2.2

     total cpu time spent up to now is      112.4 secs

     total energy              =    -922.00181365 Ry
     Harris-Foulkes estimate   =    -922.00183742 Ry
     estimated scf accuracy    <       0.00006124 Ry

     iteration # 21     ecut=   120.00 Ry     beta= 0.70
     Davidson diagonalization with overlap
     ethr =  5.47E-08,  avg # of iterations =  4.2

     total cpu time spent up to now is      115.9 secs

     total energy              =    -922.00183467 Ry
     Harris-Foulkes estimate   =    -922.00183521 Ry
     estimated scf accuracy    <       0.00001378 Ry

     iteration # 22     ecut=   120.00 Ry     beta= 0.70
     Davidson diagonalization with overlap
     ethr =  1.23E-08,  avg # of iterations =  1.2

     total cpu time spent up to now is      117.6 secs

     total energy              =    -922.00183316 Ry
     Harris-Foulkes estimate   =    -922.00183487 Ry
     estimated scf accuracy    <       0.00001271 Ry

     iteration # 23     ecut=   120.00 Ry     beta= 0.70
     Davidson diagonalization with overlap
     ethr =  1.13E-08,  avg # of iterations =  2.2

     total cpu time spent up to now is      119.3 secs

     total energy              =    -922.00183225 Ry
     Harris-Foulkes estimate   =    -922.00183338 Ry
     estimated scf accuracy    <       0.00000710 Ry

     iteration # 24     ecut=   120.00 Ry     beta= 0.70
     Davidson diagonalization with overlap
     ethr =  6.34E-09,  avg # of iterations =  4.0

     total cpu time spent up to now is      121.2 secs

     total energy              =    -922.00183280 Ry
     Harris-Foulkes estimate   =    -922.00183293 Ry
     estimated scf accuracy    <       0.00000078 Ry

     iteration # 25     ecut=   120.00 Ry     beta= 0.70
     Davidson diagonalization with overlap
     ethr =  7.00E-10,  avg # of iterations =  4.0

     total cpu time spent up to now is      123.5 secs

     total energy              =    -922.00183297 Ry
     Harris-Foulkes estimate   =    -922.00183302 Ry
     estimated scf accuracy    <       0.00000026 Ry

     iteration # 26     ecut=   120.00 Ry     beta= 0.70
     Davidson diagonalization with overlap
     ethr =  2.33E-10,  avg # of iterations =  4.2

     total cpu time spent up to now is      125.6 secs

     total energy              =    -922.00183300 Ry
     Harris-Foulkes estimate   =    -922.00183302 Ry
     estimated scf accuracy    <       0.00000007 Ry

     iteration # 27     ecut=   120.00 Ry     beta= 0.70
     Davidson diagonalization with overlap
     ethr =  6.21E-11,  avg # of iterations =  4.0

     total cpu time spent up to now is      127.5 secs

     total energy              =    -922.00183300 Ry
     Harris-Foulkes estimate   =    -922.00183301 Ry
     estimated scf accuracy    <       0.00000002 Ry

     iteration # 28     ecut=   120.00 Ry     beta= 0.70
     Davidson diagonalization with overlap
     ethr =  1.77E-11,  avg # of iterations =  4.5

     total cpu time spent up to now is      130.0 secs

     total energy              =    -922.00183301 Ry
     Harris-Foulkes estimate   =    -922.00183301 Ry
     estimated scf accuracy    <       0.00000001 Ry

     iteration # 29     ecut=   120.00 Ry     beta= 0.70
     Davidson diagonalization with overlap
     ethr =  1.00E-11,  avg # of iterations =  4.2

     total cpu time spent up to now is      132.4 secs

     total energy              =    -922.00183301 Ry
     Harris-Foulkes estimate   =    -922.00183301 Ry
     estimated scf accuracy    <          2.3E-09 Ry

     iteration # 30     ecut=   120.00 Ry     beta= 0.70
     Davidson diagonalization with overlap
     ethr =  2.07E-12,  avg # of iterations =  4.0

     total cpu time spent up to now is      134.2 secs

     total energy              =    -922.00183301 Ry
     Harris-Foulkes estimate   =    -922.00183301 Ry
     estimated scf accuracy    <          1.6E-09 Ry

     iteration # 31     ecut=   120.00 Ry     beta= 0.70
     Davidson diagonalization with overlap
     ethr =  1.40E-12,  avg # of iterations =  3.8

     total cpu time spent up to now is      136.2 secs

     total energy              =    -922.00183301 Ry
     Harris-Foulkes estimate   =    -922.00183301 Ry
     estimated scf accuracy    <          9.8E-10 Ry

     iteration # 32     ecut=   120.00 Ry     beta= 0.70
     Davidson diagonalization with overlap
     ethr =  8.71E-13,  avg # of iterations =  3.8

     total cpu time spent up to now is      138.5 secs

     total energy              =    -922.00183301 Ry
     Harris-Foulkes estimate   =    -922.00183301 Ry
     estimated scf accuracy    <          3.3E-10 Ry

     iteration # 33     ecut=   120.00 Ry     beta= 0.70
     Davidson diagonalization with overlap
     ethr =  2.94E-13,  avg # of iterations =  4.0

     total cpu time spent up to now is      141.1 secs

     End of self-consistent calculation

          k = 0.0000 0.0000 0.0000 ( 28709 PWs)   bands (ev):

   -60.5384 -60.5365 -60.5273 -60.5254 -34.5728 -34.5704 -34.5625 -34.5573
   -34.4740 -34.4217 -34.3955 -34.3713 -34.3689 -34.3454 -34.3357 -34.3332
   -14.0500 -13.9308 -12.9630 -12.8596 -12.7827 -12.7242 -12.3358 -12.3288
   -12.1866 -12.1801  -0.9666  -0.9547  -0.8419  -0.7616  -0.5964  -0.1906
     0.4585   0.5669   0.7278   0.8182   1.0283   1.0801   1.2383   1.2525
     1.3356   1.3730   1.5370   1.6121   1.6741   1.7463   1.8491   1.8754
     2.1021   2.2961   2.4796   2.5075   2.6034   2.7873   2.8157   2.8846

          k = 0.0000 0.2552 0.0000 ( 28665 PWs)   bands (ev):

   -60.5384 -60.5364 -60.5273 -60.5254 -34.5736 -34.5711 -34.5643 -34.5590
   -34.4737 -34.4215 -34.3955 -34.3712 -34.3688 -34.3454 -34.3357 -34.3332
   -14.0030 -13.8914 -12.9234 -12.8455 -12.7797 -12.7089 -12.3480 -12.3229
   -12.1818 -12.1512  -0.9944  -0.9822  -0.8648  -0.7922  -0.7232  -0.3599
    -0.2039   0.0442   0.1065   0.2009   0.7479   0.8347   0.9005   1.2831
     1.3424   1.5383   1.6986   1.7554   1.9078   1.9550   2.0782   2.2048
     2.4449   2.4618   2.4715   2.6320   2.6794   2.9205   2.9634   3.0857

          k = 0.3331 0.0000 0.0000 ( 28670 PWs)   bands (ev):

   -60.5341 -60.5321 -60.5286 -60.5266 -34.5669 -34.5646 -34.5607 -34.5567
   -34.4711 -34.4455 -34.4316 -34.4232 -34.3751 -34.3699 -34.3545 -34.3438
   -13.4887 -13.3553 -12.8746 -12.7418 -12.7220 -12.6811 -12.2732 -12.2715
   -12.2275 -12.2056  -1.4624  -1.3895  -0.6131  -0.6026  -0.4912  -0.1567
    -0.0544   0.2971   0.3028   0.5928   0.6339   0.7018   1.0391   1.1468
     1.1961   1.3127   1.3293   1.4368   1.4976   1.5836   1.7326   1.7679
     1.8259   2.2134   2.5472   2.6119   2.7415   2.9206   3.0670   3.0686

          k = 0.3331 0.2552 0.0000 ( 28681 PWs)   bands (ev):

   -60.5341 -60.5321 -60.5285 -60.5266 -34.5679 -34.5655 -34.5621 -34.5581
   -34.4709 -34.4454 -34.4314 -34.4231 -34.3751 -34.3699 -34.3545 -34.3438
   -13.4478 -13.3258 -12.8486 -12.7400 -12.7089 -12.6679 -12.2783 -12.2572
   -12.1950 -12.1707  -1.4620  -1.3881  -0.6632  -0.6445  -0.5800  -0.2721
    -0.2133  -0.0967   0.0139   0.2194   0.3047   0.4056   0.8194   0.8504
     0.8791   0.9796   1.1106   1.2016   1.2840   1.6956   1.9633   2.1506
     2.3720   2.4289   2.7590   2.9876   2.9990   3.1523   3.1944   3.2271

     highest occupied level (ev):     3.2271

!    total energy              =    -922.00183301 Ry
     Harris-Foulkes estimate   =    -922.00183301 Ry
     estimated scf accuracy    <          5.4E-11 Ry

     The total energy is the sum of the following terms:

     one-electron contribution =    -625.22697063 Ry
     hartree contribution      =     349.65034663 Ry
     xc contribution           =    -173.99894255 Ry
     ewald contribution        =    -472.42626647 Ry

     convergence has been achieved in  33 iterations

     Forces acting on atoms (cartesian axes, Ry/au):

     atom    1 type  1   force =     0.00000000   -0.00227234   -0.00023698
     atom    2 type  1   force =     0.00000000    0.00227234    0.00023698
     atom    3 type  1   force =     0.00000000    0.00227234   -0.00023698
     atom    4 type  1   force =    -0.00000000   -0.00227234    0.00023698
     atom    5 type  2   force =     0.00000000   -0.00027238    0.00018806
     atom    6 type  2   force =     0.00000000    0.00027238   -0.00018806
     atom    7 type  2   force =     0.00000000    0.00027238    0.00018806
     atom    8 type  2   force =    -0.00000000   -0.00027238   -0.00018806
     atom    9 type  2   force =     0.00000000    0.00311693   -0.00009371
     atom   10 type  2   force =    -0.00000000   -0.00311693    0.00009371
     atom   11 type  2   force =     0.00000000   -0.00311693   -0.00009371
     atom   12 type  2   force =     0.00000000    0.00058812    0.00000000
     atom   13 type  2   force =     0.00000000   -0.00058812   -0.00000000
     atom   14 type  2   force =     0.00000000    0.00311693    0.00009371

     Total force =     0.007804     Total SCF correction =     0.000016


     Computing stress (Cartesian axis) and pressure

          total   stress  (Ry/bohr**3)                   (kbar)     P=    0.64
   0.00000436   0.00000000   0.00000000          0.64      0.00      0.00
   0.00000000   0.00000800   0.00000000          0.00      1.18      0.00
   0.00000000   0.00000000   0.00000068          0.00      0.00      0.10


     number of scf cycles    =   2
     number of bfgs steps    =   1

     enthalpy old            =    -922.0017856789 Ry
     enthalpy new            =    -922.0018330101 Ry

     CASE: enthalpy_new < enthalpy_old

     new trust radius        =       0.0105829218 bohr
     new conv_thr            =            1.0E-12 Ry

     new unit-cell volume =   1298.32663 a.u.^3 (   192.39215 Ang^3 )
     density =      3.13962 g/cm^3

CELL_PARAMETERS (alat=  6.73903744)
   1.001365211   0.000000000   0.000000000
   0.000000000   1.308282118   0.000000000
   0.000000000   0.000000000   3.238146204

ATOMIC_POSITIONS (crystal)
V        0.000000000   0.389163646   0.648378774
V        0.500000002   0.610836358   0.851621232
V        0.500000002   0.610836358   0.148378773
V       -0.000000000   0.389163646   0.351621229
O        0.500000002   0.491710860   0.681504274
O        0.000000000   0.508289145   0.818495731
O        0.000000000   0.508289145   0.181504273
O        0.500000002   0.491710860   0.318495729
O        0.000000000   0.050555543   0.355921996
O        0.500000002   0.949444461   0.144078007
O        0.500000002   0.949444461   0.855921997
O        0.500000002   0.501416261  -0.000000000
O        0.000000000   0.498583743   0.500000002
O        0.000000000   0.050555543   0.644078010



     Writing output data file v2o5.save/
     NEW-OLD atomic charge density approx. for the potential
     extrapolated charge  112.31963, renormalised to  112.00000

     total cpu time spent up to now is      146.2 secs

     Self-consistent Calculation

     iteration #  1     ecut=   120.00 Ry     beta= 0.70
     Davidson diagonalization with overlap
     ethr =  1.00E-06,  avg # of iterations =  8.2

     total cpu time spent up to now is      152.2 secs

     total energy              =    -921.97424016 Ry
     Harris-Foulkes estimate   =    -920.53220936 Ry
     estimated scf accuracy    <       0.02643417 Ry

     iteration #  2     ecut=   120.00 Ry     beta= 0.70
     Davidson diagonalization with overlap
     ethr =  2.36E-05,  avg # of iterations =  6.0

     total cpu time spent up to now is      155.8 secs

     total energy              =    -921.93585846 Ry
     Harris-Foulkes estimate   =    -922.09875254 Ry
     estimated scf accuracy    <       0.92937032 Ry

     iteration #  3     ecut=   120.00 Ry     beta= 0.70
     Davidson diagonalization with overlap
     ethr =  2.36E-05,  avg # of iterations =  5.0

     total cpu time spent up to now is      159.0 secs

     total energy              =    -922.00249206 Ry
     Harris-Foulkes estimate   =    -922.00449515 Ry
     estimated scf accuracy    <       0.01427036 Ry

     iteration #  4     ecut=   120.00 Ry     beta= 0.70
     Davidson diagonalization with overlap
     ethr =  1.27E-05,  avg # of iterations =  1.0

     total cpu time spent up to now is      160.1 secs

     total energy              =    -922.00156918 Ry
     Harris-Foulkes estimate   =    -922.00278565 Ry
     estimated scf accuracy    <       0.00988622 Ry

     iteration #  5     ecut=   120.00 Ry     beta= 0.70
     Davidson diagonalization with overlap
     ethr =  8.83E-06,  avg # of iterations =  2.2

     total cpu time spent up to now is      161.4 secs

     total energy              =    -922.00174694 Ry
     Harris-Foulkes estimate   =    -922.00185268 Ry
     estimated scf accuracy    <       0.00552087 Ry

     iteration #  6     ecut=   120.00 Ry     beta= 0.70
     Davidson diagonalization with overlap
     ethr =  4.93E-06,  avg # of iterations =  1.0

     total cpu time spent up to now is      162.6 secs

     total energy              =    -922.00184149 Ry
     Harris-Foulkes estimate   =    -922.00185593 Ry
     estimated scf accuracy    <       0.00485920 Ry

     iteration #  7     ecut=   120.00 Ry     beta= 0.70
     Davidson diagonalization with overlap
     ethr =  4.34E-06,  avg # of iterations =  1.0

     total cpu time spent up to now is      163.8 secs

     total energy              =    -922.00192720 Ry
     Harris-Foulkes estimate   =    -922.00189912 Ry
     estimated scf accuracy    <       0.00418600 Ry

     iteration #  8     ecut=   120.00 Ry     beta= 0.70
     Davidson diagonalization with overlap
     ethr =  3.74E-06,  avg # of iterations =  1.0

     total cpu time spent up to now is      165.1 secs

     total energy              =    -922.00196165 Ry
     Harris-Foulkes estimate   =    -922.00196665 Ry
     estimated scf accuracy    <       0.00390256 Ry

     iteration #  9     ecut=   120.00 Ry     beta= 0.70
     Davidson diagonalization with overlap
     ethr =  3.48E-06,  avg # of iterations =  1.0

     total cpu time spent up to now is      166.5 secs

     total energy              =    -922.00167100 Ry
     Harris-Foulkes estimate   =    -922.00199702 Ry
     estimated scf accuracy    <       0.00343213 Ry

     iteration # 10     ecut=   120.00 Ry     beta= 0.70
     Davidson diagonalization with overlap
     ethr =  3.06E-06,  avg # of iterations =  1.0

     total cpu time spent up to now is      167.6 secs

     total energy              =    -922.00111674 Ry
     Harris-Foulkes estimate   =    -922.00173887 Ry
     estimated scf accuracy    <       0.00225667 Ry

     iteration # 11     ecut=   120.00 Ry     beta= 0.70
     Davidson diagonalization with overlap
     ethr =  2.01E-06,  avg # of iterations =  5.0

     total cpu time spent up to now is      170.3 secs

     total energy              =    -922.00185091 Ry
     Harris-Foulkes estimate   =    -922.00213638 Ry
     estimated scf accuracy    <       0.00211405 Ry

     iteration # 12     ecut=   120.00 Ry     beta= 0.70
     Davidson diagonalization with overlap
     ethr =  1.89E-06,  avg # of iterations =  1.0

     total cpu time spent up to now is      171.6 secs

     total energy              =    -922.00188438 Ry
     Harris-Foulkes estimate   =    -922.00188251 Ry
     estimated scf accuracy    <       0.00120728 Ry

     iteration # 13     ecut=   120.00 Ry     beta= 0.70
     Davidson diagonalization with overlap
     ethr =  1.08E-06,  avg # of iterations =  1.0

     total cpu time spent up to now is      172.8 secs

     total energy              =    -922.00171934 Ry
     Harris-Foulkes estimate   =    -922.00190059 Ry
     estimated scf accuracy    <       0.00117373 Ry

     iteration # 14     ecut=   120.00 Ry     beta= 0.70
     Davidson diagonalization with overlap
     ethr =  1.05E-06,  avg # of iterations =  3.0

     total cpu time spent up to now is      174.6 secs

     total energy              =    -922.00187548 Ry
     Harris-Foulkes estimate   =    -922.00189061 Ry
     estimated scf accuracy    <       0.00006835 Ry

     iteration # 15     ecut=   120.00 Ry     beta= 0.70
     Davidson diagonalization with overlap
     ethr =  6.10E-08,  avg # of iterations =  4.8

     total cpu time spent up to now is      176.8 secs

     total energy              =    -922.00190646 Ry
     Harris-Foulkes estimate   =    -922.00189282 Ry
     estimated scf accuracy    <       0.00006438 Ry

     iteration # 16     ecut=   120.00 Ry     beta= 0.70
     Davidson diagonalization with overlap
     ethr =  5.75E-08,  avg # of iterations =  3.8

     total cpu time spent up to now is      178.5 secs

     total energy              =    -922.00191989 Ry
     Harris-Foulkes estimate   =    -922.00191444 Ry
     estimated scf accuracy    <       0.00022357 Ry

     iteration # 17     ecut=   120.00 Ry     beta= 0.70
     Davidson diagonalization with overlap
     ethr =  5.75E-08,  avg # of iterations =  1.0

     total cpu time spent up to now is      179.9 secs

     total energy              =    -922.00190382 Ry
     Harris-Foulkes estimate   =    -922.00192062 Ry
     estimated scf accuracy    <       0.00024141 Ry

     iteration # 18     ecut=   120.00 Ry     beta= 0.70
     Davidson diagonalization with overlap
     ethr =  5.75E-08,  avg # of iterations =  1.0

     total cpu time spent up to now is      181.2 secs

     total energy              =    -922.00183128 Ry
     Harris-Foulkes estimate   =    -922.00190466 Ry
     estimated scf accuracy    <       0.00020396 Ry

     iteration # 19     ecut=   120.00 Ry     beta= 0.70
     Davidson diagonalization with overlap
     ethr =  5.75E-08,  avg # of iterations =  5.0

     total cpu time spent up to now is      184.4 secs

     total energy              =    -922.00187040 Ry
     Harris-Foulkes estimate   =    -922.00190517 Ry
     estimated scf accuracy    <       0.00016577 Ry

     iteration # 20     ecut=   120.00 Ry     beta= 0.70
     Davidson diagonalization with overlap
     ethr =  5.75E-08,  avg # of iterations =  4.0

     total cpu time spent up to now is      186.5 secs

     total energy              =    -922.00188403 Ry
     Harris-Foulkes estimate   =    -922.00188498 Ry
     estimated scf accuracy    <       0.00000536 Ry

     iteration # 21     ecut=   120.00 Ry     beta= 0.70
     Davidson diagonalization with overlap
     ethr =  4.78E-09,  avg # of iterations =  5.0

     total cpu time spent up to now is      188.1 secs

     total energy              =    -922.00188447 Ry
     Harris-Foulkes estimate   =    -922.00188482 Ry
     estimated scf accuracy    <       0.00000162 Ry

     iteration # 22     ecut=   120.00 Ry     beta= 0.70
     Davidson diagonalization with overlap
     ethr =  1.45E-09,  avg # of iterations =  4.5

     total cpu time spent up to now is      190.3 secs

     total energy              =    -922.00188487 Ry
     Harris-Foulkes estimate   =    -922.00188498 Ry
     estimated scf accuracy    <       0.00000056 Ry

     iteration # 23     ecut=   120.00 Ry     beta= 0.70
     Davidson diagonalization with overlap
     ethr =  5.00E-10,  avg # of iterations =  1.2

     total cpu time spent up to now is      191.5 secs

     total energy              =    -922.00188481 Ry
     Harris-Foulkes estimate   =    -922.00188489 Ry
     estimated scf accuracy    <       0.00000026 Ry

     iteration # 24     ecut=   120.00 Ry     beta= 0.70
     Davidson diagonalization with overlap
     ethr =  2.36E-10,  avg # of iterations =  4.2

     total cpu time spent up to now is      194.2 secs

     total energy              =    -922.00188491 Ry
     Harris-Foulkes estimate   =    -922.00188494 Ry
     estimated scf accuracy    <       0.00000025 Ry

     iteration # 25     ecut=   120.00 Ry     beta= 0.70
     Davidson diagonalization with overlap
     ethr =  2.19E-10,  avg # of iterations =  1.0

     total cpu time spent up to now is      195.3 secs

     total energy              =    -922.00188489 Ry
     Harris-Foulkes estimate   =    -922.00188491 Ry
     estimated scf accuracy    <       0.00000016 Ry

     iteration # 26     ecut=   120.00 Ry     beta= 0.70
     Davidson diagonalization with overlap
     ethr =  1.41E-10,  avg # of iterations =  3.0

     total cpu time spent up to now is      197.1 secs

     total energy              =    -922.00188490 Ry
     Harris-Foulkes estimate   =    -922.00188490 Ry
     estimated scf accuracy    <       0.00000002 Ry

     iteration # 27     ecut=   120.00 Ry     beta= 0.70
     Davidson diagonalization with overlap
     ethr =  1.86E-11,  avg # of iterations =  5.0

     total cpu time spent up to now is      199.7 secs

     total energy              =    -922.00188491 Ry
     Harris-Foulkes estimate   =    -922.00188491 Ry
     estimated scf accuracy    <       0.00000001 Ry

     iteration # 28     ecut=   120.00 Ry     beta= 0.70
     Davidson diagonalization with overlap
     ethr =  1.27E-11,  avg # of iterations =  1.0

     total cpu time spent up to now is      200.9 secs

     total energy              =    -922.00188490 Ry
     Harris-Foulkes estimate   =    -922.00188491 Ry
     estimated scf accuracy    <       0.00000001 Ry

     iteration # 29     ecut=   120.00 Ry     beta= 0.70
     Davidson diagonalization with overlap
     ethr =  9.36E-12,  avg # of iterations =  5.0

     total cpu time spent up to now is      203.5 secs

     total energy              =    -922.00188491 Ry
     Harris-Foulkes estimate   =    -922.00188491 Ry
     estimated scf accuracy    <       0.00000003 Ry

     iteration # 30     ecut=   120.00 Ry     beta= 0.70
     Davidson diagonalization with overlap
     ethr =  9.36E-12,  avg # of iterations =  4.0

     total cpu time spent up to now is      205.3 secs

     total energy              =    -922.00188491 Ry
     Harris-Foulkes estimate   =    -922.00188491 Ry
     estimated scf accuracy    <          2.6E-09 Ry

     iteration # 31     ecut=   120.00 Ry     beta= 0.70
     Davidson diagonalization with overlap
     ethr =  2.34E-12,  avg # of iterations =  4.0

     total cpu time spent up to now is      207.0 secs

     total energy              =    -922.00188491 Ry
     Harris-Foulkes estimate   =    -922.00188491 Ry
     estimated scf accuracy    <          9.4E-10 Ry

     iteration # 32     ecut=   120.00 Ry     beta= 0.70
     Davidson diagonalization with overlap
     ethr =  8.42E-13,  avg # of iterations =  4.8

     total cpu time spent up to now is      209.5 secs

     total energy              =    -922.00188491 Ry
     Harris-Foulkes estimate   =    -922.00188491 Ry
     estimated scf accuracy    <          5.9E-10 Ry

     iteration # 33     ecut=   120.00 Ry     beta= 0.70
     Davidson diagonalization with overlap
     ethr =  5.30E-13,  avg # of iterations =  1.0

     total cpu time spent up to now is      210.9 secs

     total energy              =    -922.00188491 Ry
     Harris-Foulkes estimate   =    -922.00188491 Ry
     estimated scf accuracy    <          6.3E-10 Ry

     iteration # 34     ecut=   120.00 Ry     beta= 0.70
     Davidson diagonalization with overlap
     ethr =  5.30E-13,  avg # of iterations =  1.0

     total cpu time spent up to now is      212.1 secs

     total energy              =    -922.00188491 Ry
     Harris-Foulkes estimate   =    -922.00188491 Ry
     estimated scf accuracy    <          5.6E-10 Ry

     iteration # 35     ecut=   120.00 Ry     beta= 0.70
     Davidson diagonalization with overlap
     ethr =  5.01E-13,  avg # of iterations =  3.0

     total cpu time spent up to now is      214.2 secs

     total energy              =    -922.00188491 Ry
     Harris-Foulkes estimate   =    -922.00188491 Ry
     estimated scf accuracy    <          1.0E-10 Ry

     iteration # 36     ecut=   120.00 Ry     beta= 0.70
     Davidson diagonalization with overlap
     ethr =  1.00E-13,  avg # of iterations =  4.2

     total cpu time spent up to now is      218.1 secs

     total energy              =    -922.00188491 Ry
     Harris-Foulkes estimate   =    -922.00188491 Ry
     estimated scf accuracy    <          3.1E-10 Ry

     iteration # 37     ecut=   120.00 Ry     beta= 0.70
     Davidson diagonalization with overlap
     ethr =  1.00E-13,  avg # of iterations =  3.8

     total cpu time spent up to now is      220.8 secs

     total energy              =    -922.00188491 Ry
     Harris-Foulkes estimate   =    -922.00188491 Ry
     estimated scf accuracy    <          3.8E-11 Ry

     iteration # 38     ecut=   120.00 Ry     beta= 0.70
     Davidson diagonalization with overlap
     ethr =  1.00E-13,  avg # of iterations =  4.0

     total cpu time spent up to now is      223.3 secs

     total energy              =    -922.00188491 Ry
     Harris-Foulkes estimate   =    -922.00188491 Ry
     estimated scf accuracy    <          4.1E-12 Ry

     iteration # 39     ecut=   120.00 Ry     beta= 0.70
     Davidson diagonalization with overlap
     ethr =  1.00E-13,  avg # of iterations =  1.0

     total cpu time spent up to now is      225.4 secs

     total energy              =    -922.00188491 Ry
     Harris-Foulkes estimate   =    -922.00188491 Ry
     estimated scf accuracy    <          2.5E-12 Ry

     iteration # 40     ecut=   120.00 Ry     beta= 0.70
     Davidson diagonalization with overlap
     ethr =  1.00E-13,  avg # of iterations =  1.0

     total cpu time spent up to now is      227.8 secs

     total energy              =    -922.00188491 Ry
     Harris-Foulkes estimate   =    -922.00188491 Ry
     estimated scf accuracy    <          2.2E-12 Ry

     iteration # 41     ecut=   120.00 Ry     beta= 0.70
     Davidson diagonalization with overlap
     ethr =  1.00E-13,  avg # of iterations =  1.0

     total cpu time spent up to now is      229.6 secs

     total energy              =    -922.00188491 Ry
     Harris-Foulkes estimate   =    -922.00188491 Ry
     estimated scf accuracy    <          2.5E-12 Ry

     iteration # 42     ecut=   120.00 Ry     beta= 0.70
     Davidson diagonalization with overlap
     ethr =  1.00E-13,  avg # of iterations =  1.0

     total cpu time spent up to now is      231.5 secs

     total energy              =    -922.00188491 Ry
     Harris-Foulkes estimate   =    -922.00188491 Ry
     estimated scf accuracy    <          2.5E-12 Ry

     iteration # 43     ecut=   120.00 Ry     beta= 0.70
     Davidson diagonalization with overlap
     ethr =  1.00E-13,  avg # of iterations =  1.0

     total cpu time spent up to now is      233.6 secs

     End of self-consistent calculation

          k = 0.0000 0.0000 0.0000 ( 28709 PWs)   bands (ev):

   -60.5698 -60.5678 -60.5589 -60.5569 -34.6083 -34.6060 -34.5981 -34.5930
   -34.5025 -34.4506 -34.4252 -34.4002 -34.3978 -34.3753 -34.3651 -34.3626
   -14.0645 -13.9454 -12.9847 -12.8752 -12.8001 -12.7484 -12.3710 -12.3647
   -12.2237 -12.2165  -0.9836  -0.9720  -0.8544  -0.7754  -0.6169  -0.2168
     0.4329   0.5342   0.6978   0.7983   0.9950   1.0470   1.1943   1.2125
     1.3019   1.3299   1.5053   1.5737   1.6524   1.7031   1.8155   1.8389
     2.0775   2.2713   2.4452   2.4725   2.5837   2.7627   2.7840   2.8550

          k = 0.0000 0.2548 0.0000 ( 28665 PWs)   bands (ev):

   -60.5698 -60.5678 -60.5589 -60.5569 -34.6091 -34.6067 -34.5998 -34.5947
   -34.5023 -34.4504 -34.4252 -34.4001 -34.3977 -34.3754 -34.3651 -34.3627
   -14.0174 -13.9060 -12.9448 -12.8610 -12.7976 -12.7330 -12.3838 -12.3595
   -12.2195 -12.1895  -1.0115  -0.9995  -0.8784  -0.8063  -0.7432  -0.3839
    -0.2293   0.0199   0.0788   0.1713   0.7155   0.8018   0.8676   1.2480
     1.3069   1.5111   1.6770   1.7281   1.8784   1.9119   2.0398   2.1635
     2.4195   2.4280   2.4381   2.6084   2.6570   2.8873   2.9349   3.0491

          k = 0.3329 0.0000 0.0000 ( 28670 PWs)   bands (ev):

   -60.5655 -60.5636 -60.5601 -60.5582 -34.6025 -34.6002 -34.5964 -34.5925
   -34.4995 -34.4739 -34.4602 -34.4516 -34.4045 -34.3991 -34.3839 -34.3736
   -13.5067 -13.3734 -12.8971 -12.7603 -12.7427 -12.7056 -12.3090 -12.3080
   -12.2652 -12.2420  -1.4737  -1.4012  -0.6285  -0.6198  -0.5121  -0.1752
    -0.0713   0.2768   0.2791   0.5672   0.6037   0.6688   1.0097   1.1160
     1.1643   1.2721   1.2881   1.3949   1.4624   1.5415   1.7024   1.7408
     1.7889   2.1841   2.5175   2.5778   2.7127   2.8876   3.0436   3.0439

          k = 0.3329 0.2548 0.0000 ( 28681 PWs)   bands (ev):

   -60.5655 -60.5636 -60.5601 -60.5581 -34.6035 -34.6011 -34.5978 -34.5939
   -34.4993 -34.4738 -34.4600 -34.4514 -34.4045 -34.3991 -34.3839 -34.3736
   -13.4656 -13.3438 -12.8702 -12.7586 -12.7303 -12.6923 -12.3151 -12.2950
   -12.2327 -12.2092  -1.4732  -1.3999  -0.6794  -0.6626  -0.6008  -0.2941
    -0.2317  -0.1142  -0.0087   0.1915   0.2762   0.3823   0.7955   0.8171
     0.8521   0.9522   1.0763   1.1707   1.2483   1.6590   1.9332   2.1115
     2.3379   2.3993   2.7234   2.9555   2.9665   3.1176   3.1677   3.1981

     highest occupied level (ev):     3.1981

!    total energy              =    -922.00188491 Ry
     Harris-Foulkes estimate   =    -922.00188491 Ry
     estimated scf accuracy    <          2.3E-13 Ry

     The total energy is the sum of the following terms:

     one-electron contribution =    -626.56954206 Ry
     hartree contribution      =     350.19739562 Ry
     xc contribution           =    -173.98897162 Ry
     ewald contribution        =    -471.64076684 Ry

     convergence has been achieved in  43 iterations

     Forces acting on atoms (cartesian axes, Ry/au):

     atom    1 type  1   force =    -0.00000000    0.00150237    0.00011442
     atom    2 type  1   force =     0.00000000   -0.00150237   -0.00011442
     atom    3 type  1   force =     0.00000000   -0.00150237    0.00011442
     atom    4 type  1   force =    -0.00000000    0.00150237   -0.00011442
     atom    5 type  2   force =     0.00000000   -0.00078614    0.00035659
     atom    6 type  2   force =     0.00000000    0.00078614   -0.00035659
     atom    7 type  2   force =     0.00000000    0.00078614    0.00035659
     atom    8 type  2   force =     0.00000000   -0.00078614   -0.00035659
     atom    9 type  2   force =    -0.00000000    0.00087899   -0.00001465
     atom   10 type  2   force =     0.00000000   -0.00087899    0.00001465
     atom   11 type  2   force =     0.00000000   -0.00087899   -0.00001465
     atom   12 type  2   force =     0.00000000    0.00141223    0.00000000
     atom   13 type  2   force =     0.00000000   -0.00141223    0.00000000
     atom   14 type  2   force =     0.00000000    0.00087899    0.00001465

     Total force =     0.004375     Total SCF correction =     0.000001


     Computing stress (Cartesian axis) and pressure

          total   stress  (Ry/bohr**3)                   (kbar)     P=   -1.08
  -0.00002249   0.00000000   0.00000000         -3.31      0.00      0.00
   0.00000000   0.00002364   0.00000000          0.00      3.48      0.00
   0.00000000   0.00000000  -0.00002322          0.00      0.00     -3.42


     number of scf cycles    =   3
     number of bfgs steps    =   2

     enthalpy old            =    -922.0018330101 Ry
     enthalpy new            =    -922.0018849069 Ry

     CASE: enthalpy_new < enthalpy_old

     new trust radius        =       0.0129383808 bohr
     new conv_thr            =            1.0E-12 Ry

     new unit-cell volume =   1300.56467 a.u.^3 (   192.72380 Ang^3 )
     density =      3.13421 g/cm^3

CELL_PARAMETERS (alat=  6.73903744)
   1.001431647   0.000000000   0.000000000
   0.000000000   1.310630990   0.000000000
   0.000000000   0.000000000   3.237699970

ATOMIC_POSITIONS (crystal)
V        0.000000000   0.389077259   0.648373738
V        0.500000002   0.610922745   0.851626268
V        0.500000002   0.610922745   0.148373737
V       -0.000000000   0.389077259   0.351626265
O        0.500000002   0.491586900   0.681529330
O        0.000000000   0.508413105   0.818470675
O        0.000000000   0.508413105   0.181529329
O        0.500000002   0.491586900   0.318470673
O       -0.000000000   0.051019542   0.355916630
O        0.500000002   0.948980462   0.144083373
O        0.500000002   0.948980462   0.855916631
O        0.500000002   0.501650263  -0.000000000
O        0.000000000   0.498349741   0.500000002
O        0.000000000   0.051019542   0.644083376



     Writing output data file v2o5.save/
     NEW-OLD atomic charge density approx. for the potential
     extrapolated charge  112.19272, renormalised to  112.00000

     total cpu time spent up to now is      239.9 secs

     Self-consistent Calculation

     iteration #  1     ecut=   120.00 Ry     beta= 0.70
     Davidson diagonalization with overlap
     ethr =  1.00E-06,  avg # of iterations =  7.5

     total cpu time spent up to now is      245.3 secs

     total energy              =    -921.99296101 Ry
     Harris-Foulkes estimate   =    -921.11300587 Ry
     estimated scf accuracy    <       0.00851412 Ry

     iteration #  2     ecut=   120.00 Ry     beta= 0.70
     Davidson diagonalization with overlap
     ethr =  7.60E-06,  avg # of iterations =  6.0

     total cpu time spent up to now is      250.7 secs

     total energy              =    -921.98289946 Ry
     Harris-Foulkes estimate   =    -922.03190483 Ry
     estimated scf accuracy    <       0.26766566 Ry

     iteration #  3     ecut=   120.00 Ry     beta= 0.70
     Davidson diagonalization with overlap
     ethr =  7.60E-06,  avg # of iterations =  5.0

     total cpu time spent up to now is      255.5 secs

     total energy              =    -922.00217712 Ry
     Harris-Foulkes estimate   =    -922.00288242 Ry
     estimated scf accuracy    <       0.00494565 Ry

     iteration #  4     ecut=   120.00 Ry     beta= 0.70
     Davidson diagonalization with overlap
     ethr =  4.42E-06,  avg # of iterations =  1.0

     total cpu time spent up to now is      257.3 secs

     total energy              =    -922.00183502 Ry
     Harris-Foulkes estimate   =    -922.00227670 Ry
     estimated scf accuracy    <       0.00341873 Ry

     iteration #  5     ecut=   120.00 Ry     beta= 0.70
     Davidson diagonalization with overlap
     ethr =  3.05E-06,  avg # of iterations =  2.0

     total cpu time spent up to now is      259.1 secs

     total energy              =    -922.00191319 Ry
     Harris-Foulkes estimate   =    -922.00193420 Ry
     estimated scf accuracy    <       0.00187092 Ry

     iteration #  6     ecut=   120.00 Ry     beta= 0.70
     Davidson diagonalization with overlap
     ethr =  1.67E-06,  avg # of iterations =  1.0

     total cpu time spent up to now is      260.9 secs

     total energy              =    -922.00195881 Ry
     Harris-Foulkes estimate   =    -922.00195080 Ry
     estimated scf accuracy    <       0.00168465 Ry

     iteration #  7     ecut=   120.00 Ry     beta= 0.70
     Davidson diagonalization with overlap
     ethr =  1.50E-06,  avg # of iterations =  1.0

     total cpu time spent up to now is      262.9 secs

     total energy              =    -922.00197744 Ry
     Harris-Foulkes estimate   =    -922.00197693 Ry
     estimated scf accuracy    <       0.00147792 Ry

     iteration #  8     ecut=   120.00 Ry     beta= 0.70
     Davidson diagonalization with overlap
     ethr =  1.32E-06,  avg # of iterations =  1.0

     total cpu time spent up to now is      264.6 secs

     total energy              =    -922.00197984 Ry
     Harris-Foulkes estimate   =    -922.00199071 Ry
     estimated scf accuracy    <       0.00134252 Ry

     iteration #  9     ecut=   120.00 Ry     beta= 0.70
     Davidson diagonalization with overlap
     ethr =  1.20E-06,  avg # of iterations =  1.0

     total cpu time spent up to now is      266.4 secs

     total energy              =    -922.00186565 Ry
     Harris-Foulkes estimate   =    -922.00199223 Ry
     estimated scf accuracy    <       0.00112421 Ry

     iteration # 10     ecut=   120.00 Ry     beta= 0.70
     Davidson diagonalization with overlap
     ethr =  1.00E-06,  avg # of iterations =  2.5

     total cpu time spent up to now is      267.9 secs

     total energy              =    -922.00177716 Ry
     Harris-Foulkes estimate   =    -922.00189698 Ry
     estimated scf accuracy    <       0.00066935 Ry

     iteration # 11     ecut=   120.00 Ry     beta= 0.70
     Davidson diagonalization with overlap
     ethr =  5.98E-07,  avg # of iterations =  4.2

     total cpu time spent up to now is      270.7 secs

     total energy              =    -922.00196843 Ry
     Harris-Foulkes estimate   =    -922.00200072 Ry
     estimated scf accuracy    <       0.00034790 Ry

     iteration # 12     ecut=   120.00 Ry     beta= 0.70
     Davidson diagonalization with overlap
     ethr =  3.11E-07,  avg # of iterations =  1.0

     total cpu time spent up to now is      272.1 secs

     total energy              =    -922.00197577 Ry
     Harris-Foulkes estimate   =    -922.00197249 Ry
     estimated scf accuracy    <       0.00025304 Ry

     iteration # 13     ecut=   120.00 Ry     beta= 0.70
     Davidson diagonalization with overlap
     ethr =  2.26E-07,  avg # of iterations =  1.0

     total cpu time spent up to now is      273.5 secs

     total energy              =    -922.00189090 Ry
     Harris-Foulkes estimate   =    -922.00197720 Ry
     estimated scf accuracy    <       0.00025093 Ry

     iteration # 14     ecut=   120.00 Ry     beta= 0.70
     Davidson diagonalization with overlap
     ethr =  2.24E-07,  avg # of iterations =  5.0

     total cpu time spent up to now is      276.9 secs

     total energy              =    -922.00191555 Ry
     Harris-Foulkes estimate   =    -922.00210268 Ry
     estimated scf accuracy    <       0.00081202 Ry

     iteration # 15     ecut=   120.00 Ry     beta= 0.70
     Davidson diagonalization with overlap
     ethr =  2.24E-07,  avg # of iterations =  4.0

     total cpu time spent up to now is      278.8 secs

     total energy              =    -922.00194446 Ry
     Harris-Foulkes estimate   =    -922.00197135 Ry
     estimated scf accuracy    <       0.00011390 Ry

     iteration # 16     ecut=   120.00 Ry     beta= 0.70
     Davidson diagonalization with overlap
     ethr =  1.02E-07,  avg # of iterations =  3.8

     total cpu time spent up to now is      280.5 secs

     total energy              =    -922.00195341 Ry
     Harris-Foulkes estimate   =    -922.00195519 Ry
     estimated scf accuracy    <       0.00002391 Ry

     iteration # 17     ecut=   120.00 Ry     beta= 0.70
     Davidson diagonalization with overlap
     ethr =  2.13E-08,  avg # of iterations =  4.0

     total cpu time spent up to now is      282.5 secs

     total energy              =    -922.00196168 Ry
     Harris-Foulkes estimate   =    -922.00196009 Ry
     estimated scf accuracy    <       0.00001852 Ry

     iteration # 18     ecut=   120.00 Ry     beta= 0.70
     Davidson diagonalization with overlap
     ethr =  1.65E-08,  avg # of iterations =  2.5

     total cpu time spent up to now is      283.8 secs

     total energy              =    -922.00195743 Ry
     Harris-Foulkes estimate   =    -922.00196197 Ry
     estimated scf accuracy    <       0.00002568 Ry

     iteration # 19     ecut=   120.00 Ry     beta= 0.70
     Davidson diagonalization with overlap
     ethr =  1.65E-08,  avg # of iterations =  1.0

     total cpu time spent up to now is      285.0 secs

     total energy              =    -922.00195402 Ry
     Harris-Foulkes estimate   =    -922.00195785 Ry
     estimated scf accuracy    <       0.00001460 Ry

     iteration # 20     ecut=   120.00 Ry     beta= 0.70
     Davidson diagonalization with overlap
     ethr =  1.30E-08,  avg # of iterations =  4.0

     total cpu time spent up to now is      287.3 secs

     total energy              =    -922.00195714 Ry
     Harris-Foulkes estimate   =    -922.00195901 Ry
     estimated scf accuracy    <       0.00000843 Ry

     iteration # 21     ecut=   120.00 Ry     beta= 0.70
     Davidson diagonalization with overlap
     ethr =  7.52E-09,  avg # of iterations =  3.5

     total cpu time spent up to now is      289.0 secs

     total energy              =    -922.00195738 Ry
     Harris-Foulkes estimate   =    -922.00195764 Ry
     estimated scf accuracy    <       0.00000138 Ry

     iteration # 22     ecut=   120.00 Ry     beta= 0.70
     Davidson diagonalization with overlap
     ethr =  1.23E-09,  avg # of iterations =  4.5

     total cpu time spent up to now is      291.7 secs

     total energy              =    -922.00195804 Ry
     Harris-Foulkes estimate   =    -922.00195815 Ry
     estimated scf accuracy    <       0.00000099 Ry

     iteration # 23     ecut=   120.00 Ry     beta= 0.70
     Davidson diagonalization with overlap
     ethr =  8.80E-10,  avg # of iterations =  1.0

     total cpu time spent up to now is      293.3 secs

     total energy              =    -922.00195793 Ry
     Harris-Foulkes estimate   =    -922.00195805 Ry
     estimated scf accuracy    <       0.00000069 Ry

     iteration # 24     ecut=   120.00 Ry     beta= 0.70
     Davidson diagonalization with overlap
     ethr =  6.20E-10,  avg # of iterations =  3.8

     total cpu time spent up to now is      295.3 secs

     total energy              =    -922.00195800 Ry
     Harris-Foulkes estimate   =    -922.00195801 Ry
     estimated scf accuracy    <       0.00000006 Ry

     iteration # 25     ecut=   120.00 Ry     beta= 0.70
     Davidson diagonalization with overlap
     ethr =  5.29E-11,  avg # of iterations =  5.2

     total cpu time spent up to now is      298.4 secs

     total energy              =    -922.00195802 Ry
     Harris-Foulkes estimate   =    -922.00195803 Ry
     estimated scf accuracy    <       0.00000003 Ry

     iteration # 26     ecut=   120.00 Ry     beta= 0.70
     Davidson diagonalization with overlap
     ethr =  2.94E-11,  avg # of iterations =  3.5

     total cpu time spent up to now is      300.1 secs

     total energy              =    -922.00195802 Ry
     Harris-Foulkes estimate   =    -922.00195802 Ry
     estimated scf accuracy    <       0.00000002 Ry

     iteration # 27     ecut=   120.00 Ry     beta= 0.70
     Davidson diagonalization with overlap
     ethr =  1.37E-11,  avg # of iterations =  2.8

     total cpu time spent up to now is      301.6 secs

     total energy              =    -922.00195802 Ry
     Harris-Foulkes estimate   =    -922.00195802 Ry
     estimated scf accuracy    <       0.00000001 Ry

     iteration # 28     ecut=   120.00 Ry     beta= 0.70
     Davidson diagonalization with overlap
     ethr =  9.39E-12,  avg # of iterations =  4.0

     total cpu time spent up to now is      303.6 secs

     total energy              =    -922.00195802 Ry
     Harris-Foulkes estimate   =    -922.00195802 Ry
     estimated scf accuracy    <          1.4E-09 Ry

     iteration # 29     ecut=   120.00 Ry     beta= 0.70
     Davidson diagonalization with overlap
     ethr =  1.22E-12,  avg # of iterations =  4.8

     total cpu time spent up to now is      305.6 secs

     total energy              =    -922.00195802 Ry
     Harris-Foulkes estimate   =    -922.00195802 Ry
     estimated scf accuracy    <          1.1E-09 Ry

     iteration # 30     ecut=   120.00 Ry     beta= 0.70
     Davidson diagonalization with overlap
     ethr =  9.63E-13,  avg # of iterations =  1.8

     total cpu time spent up to now is      307.3 secs

     total energy              =    -922.00195802 Ry
     Harris-Foulkes estimate   =    -922.00195802 Ry
     estimated scf accuracy    <          1.1E-09 Ry

     iteration # 31     ecut=   120.00 Ry     beta= 0.70
     Davidson diagonalization with overlap
     ethr =  9.63E-13,  avg # of iterations =  4.0

     total cpu time spent up to now is      310.0 secs

     total energy              =    -922.00195802 Ry
     Harris-Foulkes estimate   =    -922.00195802 Ry
     estimated scf accuracy    <          1.9E-09 Ry

     iteration # 32     ecut=   120.00 Ry     beta= 0.70
     Davidson diagonalization with overlap
     ethr =  9.63E-13,  avg # of iterations =  1.0

     total cpu time spent up to now is      311.4 secs

     total energy              =    -922.00195802 Ry
     Harris-Foulkes estimate   =    -922.00195802 Ry
     estimated scf accuracy    <          1.4E-09 Ry

     iteration # 33     ecut=   120.00 Ry     beta= 0.70
     Davidson diagonalization with overlap
     ethr =  9.63E-13,  avg # of iterations =  1.0

     total cpu time spent up to now is      312.7 secs

     total energy              =    -922.00195802 Ry
     Harris-Foulkes estimate   =    -922.00195802 Ry
     estimated scf accuracy    <          1.6E-09 Ry

     iteration # 34     ecut=   120.00 Ry     beta= 0.70
     Davidson diagonalization with overlap
     ethr =  9.63E-13,  avg # of iterations =  3.2

     total cpu time spent up to now is      314.5 secs

     total energy              =    -922.00195802 Ry
     Harris-Foulkes estimate   =    -922.00195802 Ry
     estimated scf accuracy    <          1.5E-10 Ry

     iteration # 35     ecut=   120.00 Ry     beta= 0.70
     Davidson diagonalization with overlap
     ethr =  1.30E-13,  avg # of iterations =  4.8

     total cpu time spent up to now is      317.3 secs

     total energy              =    -922.00195802 Ry
     Harris-Foulkes estimate   =    -922.00195802 Ry
     estimated scf accuracy    <          1.2E-10 Ry

     iteration # 36     ecut=   120.00 Ry     beta= 0.70
     Davidson diagonalization with overlap
     ethr =  1.04E-13,  avg # of iterations =  1.0

     total cpu time spent up to now is      318.8 secs

     total energy              =    -922.00195802 Ry
     Harris-Foulkes estimate   =    -922.00195802 Ry
     estimated scf accuracy    <          9.6E-11 Ry

     iteration # 37     ecut=   120.00 Ry     beta= 0.70
     Davidson diagonalization with overlap
     ethr =  1.00E-13,  avg # of iterations =  1.0

     total cpu time spent up to now is      320.1 secs

     total energy              =    -922.00195802 Ry
     Harris-Foulkes estimate   =    -922.00195802 Ry
     estimated scf accuracy    <          6.4E-11 Ry

     iteration # 38     ecut=   120.00 Ry     beta= 0.70
     Davidson diagonalization with overlap
     ethr =  1.00E-13,  avg # of iterations =  1.0

     total cpu time spent up to now is      321.4 secs

     total energy              =    -922.00195802 Ry
     Harris-Foulkes estimate   =    -922.00195802 Ry
     estimated scf accuracy    <          3.6E-11 Ry

     iteration # 39     ecut=   120.00 Ry     beta= 0.70
     Davidson diagonalization with overlap
     ethr =  1.00E-13,  avg # of iterations =  1.0

     total cpu time spent up to now is      322.7 secs

     total energy              =    -922.00195802 Ry
     Harris-Foulkes estimate   =    -922.00195802 Ry
     estimated scf accuracy    <          2.4E-11 Ry

     iteration # 40     ecut=   120.00 Ry     beta= 0.70
     Davidson diagonalization with overlap
     ethr =  1.00E-13,  avg # of iterations =  1.0

     total cpu time spent up to now is      324.0 secs

     total energy              =    -922.00195802 Ry
     Harris-Foulkes estimate   =    -922.00195802 Ry
     estimated scf accuracy    <          1.5E-11 Ry

     iteration # 41     ecut=   120.00 Ry     beta= 0.70
     Davidson diagonalization with overlap
     ethr =  1.00E-13,  avg # of iterations =  1.0

     total cpu time spent up to now is      325.1 secs

     total energy              =    -922.00195802 Ry
     Harris-Foulkes estimate   =    -922.00195802 Ry
     estimated scf accuracy    <          7.8E-12 Ry

     iteration # 42     ecut=   120.00 Ry     beta= 0.70
     Davidson diagonalization with overlap
     ethr =  1.00E-13,  avg # of iterations =  2.0

     total cpu time spent up to now is      326.5 secs

     End of self-consistent calculation

          k = 0.0000 0.0000 0.0000 ( 28709 PWs)   bands (ev):

   -60.5891 -60.5872 -60.5783 -60.5763 -34.6268 -34.6244 -34.6166 -34.6115
   -34.5223 -34.4703 -34.4450 -34.4194 -34.4170 -34.3952 -34.3844 -34.3820
   -14.0827 -13.9635 -13.0041 -12.8920 -12.8194 -12.7701 -12.3887 -12.3815
   -12.2405 -12.2343  -1.0036  -0.9920  -0.8734  -0.7950  -0.6378  -0.2388
     0.4093   0.5161   0.6780   0.7778   0.9758   1.0284   1.1719   1.1930
     1.2857   1.3080   1.4846   1.5592   1.6302   1.6872   1.7977   1.8193
     2.0614   2.2492   2.4290   2.4564   2.5663   2.7429   2.7671   2.8375

          k = 0.0000 0.2543 0.0000 ( 28665 PWs)   bands (ev):

   -60.5891 -60.5871 -60.5783 -60.5763 -34.6275 -34.6251 -34.6183 -34.6131
   -34.5221 -34.4701 -34.4450 -34.4193 -34.4169 -34.3952 -34.3844 -34.3820
   -14.0364 -13.9247 -12.9650 -12.8782 -12.8171 -12.7553 -12.4012 -12.3768
   -12.2372 -12.2070  -1.0310  -1.0190  -0.8970  -0.8254  -0.7624  -0.3979
    -0.2498   0.0041   0.0646   0.1554   0.7022   0.7854   0.8514   1.2323
     1.2912   1.4901   1.6544   1.7092   1.8581   1.8950   2.0209   2.1461
     2.3976   2.4104   2.4207   2.5887   2.6383   2.8646   2.9148   3.0262

          k = 0.3329 0.0000 0.0000 ( 28670 PWs)   bands (ev):

   -60.5849 -60.5829 -60.5794 -60.5775 -34.6210 -34.6187 -34.6149 -34.6110
   -34.5192 -34.4934 -34.4797 -34.4708 -34.4240 -34.4185 -34.4034 -34.3933
   -13.5256 -13.3921 -12.9182 -12.7787 -12.7614 -12.7272 -12.3266 -12.3248
   -12.2816 -12.2597  -1.4914  -1.4185  -0.6479  -0.6401  -0.5336  -0.1924
    -0.0877   0.2566   0.2602   0.5490   0.5833   0.6495   0.9904   1.0989
     1.1478   1.2504   1.2667   1.3729   1.4462   1.5187   1.6862   1.7196
     1.7736   2.1649   2.4989   2.5624   2.6949   2.8699   3.0235   3.0252

          k = 0.3329 0.2543 0.0000 ( 28681 PWs)   bands (ev):

   -60.5849 -60.5829 -60.5794 -60.5775 -34.6219 -34.6195 -34.6163 -34.6123
   -34.5190 -34.4933 -34.4795 -34.4707 -34.4240 -34.4185 -34.4034 -34.3933
   -13.4852 -13.3629 -12.8916 -12.7770 -12.7499 -12.7144 -12.3326 -12.3125
   -12.2503 -12.2266  -1.4910  -1.4173  -0.6979  -0.6819  -0.6206  -0.3081
    -0.2484  -0.1296  -0.0232   0.1754   0.2610   0.3636   0.7778   0.8030
     0.8354   0.9386   1.0616   1.1539   1.2319   1.6419   1.9121   2.0944
     2.3160   2.3810   2.7019   2.9344   2.9433   3.0953   3.1459   3.1776

     highest occupied level (ev):     3.1776

!    total energy              =    -922.00195802 Ry
     Harris-Foulkes estimate   =    -922.00195802 Ry
     estimated scf accuracy    <          3.6E-13 Ry

     The total energy is the sum of the following terms:

     one-electron contribution =    -627.86513960 Ry
     hartree contribution      =     350.76585971 Ry
     xc contribution           =    -173.98541903 Ry
     ewald contribution        =    -470.91725909 Ry

     convergence has been achieved in  42 iterations

     Forces acting on atoms (cartesian axes, Ry/au):

     atom    1 type  1   force =     0.00000000    0.00099896    0.00054171
     atom    2 type  1   force =     0.00000000   -0.00099896   -0.00054171
     atom    3 type  1   force =     0.00000000   -0.00099896    0.00054171
     atom    4 type  1   force =     0.00000000    0.00099896   -0.00054171
     atom    5 type  2   force =     0.00000000   -0.00088122    0.00022246
     atom    6 type  2   force =     0.00000000    0.00088122   -0.00022246
     atom    7 type  2   force =     0.00000000    0.00088122    0.00022246
     atom    8 type  2   force =     0.00000000   -0.00088122   -0.00022246
     atom    9 type  2   force =     0.00000000    0.00147954   -0.00002558
     atom   10 type  2   force =     0.00000000   -0.00147954    0.00002558
     atom   11 type  2   force =    -0.00000000   -0.00147954   -0.00002558
     atom   12 type  2   force =     0.00000000    0.00124035    0.00000000
     atom   13 type  2   force =    -0.00000000   -0.00124035    0.00000000
[...]
         2           V   tau(   2) = (   0.5007997   0.8341035   2.7402807  )
         3           V   tau(   3) = (   0.5007997   0.8341035   0.4788084  )
         4           V   tau(   4) = (   0.0000000   0.5351066   1.1307362  )
         5           O   tau(   5) = (   0.5007997   0.6705068   2.1940050  )
         6           O   tau(   6) = (   0.0000000   0.6987033   2.6346286  )
         7           O   tau(   7) = (   0.0000000   0.6987033   0.5844605  )
         8           O   tau(   8) = (   0.5007997   0.6705068   1.0250841  )
         9           O   tau(   9) = (  -0.0000000   0.0926077   1.1456072  )
        10           O   tau(  10) = (   0.5007997   1.2766024   0.4639374  )
        11           O   tau(  11) = (   0.5007997   1.2766024   2.7551517  )
        12           O   tau(  12) = (   0.5007997   0.6860400  -0.0000000  )
        13           O   tau(  13) = (   0.0000000   0.6831701   1.6095445  )
        14           O   tau(  14) = (  -0.0000000   0.0926077   2.0734819  )

     number of k points=     4
                       cart. coord. in units 2pi/alat
        k(    1) = (   0.0000000   0.0000000   0.0000000), wk =   0.2222222
        k(    2) = (   0.0000000   0.2434494   0.0000000), wk =   0.4444444
        k(    3) = (   0.3328011   0.0000000   0.0000000), wk =   0.4444444
        k(    4) = (   0.3328011   0.2434494   0.0000000), wk =   0.8888889

     Dense  grid:   239949 G-vectors     FFT dimensions: (  48,  72, 160)

     Estimated max dynamical RAM per process >      25.80 MB

     Estimated total dynamical RAM >     825.60 MB

     Initial potential from superposition of free atoms

     starting charge  111.99579, renormalised to  112.00000
     Starting wfcs are   80 randomized atomic wfcs

     total cpu time spent up to now is     2735.0 secs

     Self-consistent Calculation

     iteration #  1     ecut=   120.00 Ry     beta= 0.70
     Davidson diagonalization with overlap
     ethr =  1.00E-06,  avg # of iterations =  7.8

     total cpu time spent up to now is     2746.5 secs

     total energy              =    -917.39201424 Ry
     Harris-Foulkes estimate   =    -923.51350637 Ry
     estimated scf accuracy    <       7.68318364 Ry

     iteration #  2     ecut=   120.00 Ry     beta= 0.70
     Davidson diagonalization with overlap
     ethr =  6.86E-03,  avg # of iterations =  6.2

     total cpu time spent up to now is     2753.5 secs

     total energy              =    -907.72403918 Ry
     Harris-Foulkes estimate   =    -938.67244680 Ry
     estimated scf accuracy    <     141.50070453 Ry

     iteration #  3     ecut=   120.00 Ry     beta= 0.70
     Davidson diagonalization with overlap
     ethr =  6.86E-03,  avg # of iterations =  5.2

     total cpu time spent up to now is     2760.0 secs

     total energy              =    -921.70575103 Ry
     Harris-Foulkes estimate   =    -922.62215646 Ry
     estimated scf accuracy    <       2.99392559 Ry

     iteration #  4     ecut=   120.00 Ry     beta= 0.70
     Davidson diagonalization with overlap
     ethr =  2.67E-03,  avg # of iterations =  4.0

     total cpu time spent up to now is     2763.4 secs

     total energy              =    -921.94877471 Ry
     Harris-Foulkes estimate   =    -922.09160272 Ry
     estimated scf accuracy    <       0.86293752 Ry

     iteration #  5     ecut=   120.00 Ry     beta= 0.70
     Davidson diagonalization with overlap
     ethr =  7.70E-04,  avg # of iterations =  3.8

     total cpu time spent up to now is     2766.6 secs

     total energy              =    -921.88280800 Ry
     Harris-Foulkes estimate   =    -922.01148356 Ry
     estimated scf accuracy    <       0.46656125 Ry

     iteration #  6     ecut=   120.00 Ry     beta= 0.70
     Davidson diagonalization with overlap
     ethr =  4.17E-04,  avg # of iterations =  4.5

     total cpu time spent up to now is     2771.3 secs

     total energy              =    -922.01331769 Ry
     Harris-Foulkes estimate   =    -922.02214715 Ry
     estimated scf accuracy    <       0.15309684 Ry

     iteration #  7     ecut=   120.00 Ry     beta= 0.70
     Davidson diagonalization with overlap
     ethr =  1.37E-04,  avg # of iterations =  2.2

     total cpu time spent up to now is     2773.0 secs

     total energy              =    -921.98953021 Ry
     Harris-Foulkes estimate   =    -922.01607442 Ry
     estimated scf accuracy    <       0.13547079 Ry

     iteration #  8     ecut=   120.00 Ry     beta= 0.70
     Davidson diagonalization with overlap
     ethr =  1.21E-04,  avg # of iterations =  3.5

     total cpu time spent up to now is     2775.4 secs

     total energy              =    -921.99373415 Ry
     Harris-Foulkes estimate   =    -921.99959593 Ry
     estimated scf accuracy    <       0.02641945 Ry

     iteration #  9     ecut=   120.00 Ry     beta= 0.70
     Davidson diagonalization with overlap
     ethr =  2.36E-05,  avg # of iterations =  4.2

     total cpu time spent up to now is     2778.9 secs

     total energy              =    -922.00233768 Ry
     Harris-Foulkes estimate   =    -922.00396399 Ry
     estimated scf accuracy    <       0.00788140 Ry

     iteration # 10     ecut=   120.00 Ry     beta= 0.70
     Davidson diagonalization with overlap
     ethr =  7.04E-06,  avg # of iterations =  2.5

     total cpu time spent up to now is     2781.1 secs

     total energy              =    -922.00183432 Ry
     Harris-Foulkes estimate   =    -922.00264190 Ry
     estimated scf accuracy    <       0.00335576 Ry

     iteration # 11     ecut=   120.00 Ry     beta= 0.70
     Davidson diagonalization with overlap
     ethr =  3.00E-06,  avg # of iterations =  4.2

     total cpu time spent up to now is     2784.5 secs

     total energy              =    -922.00278401 Ry
     Harris-Foulkes estimate   =    -922.00316362 Ry
     estimated scf accuracy    <       0.00210143 Ry

     iteration # 12     ecut=   120.00 Ry     beta= 0.70
     Davidson diagonalization with overlap
     ethr =  1.88E-06,  avg # of iterations =  1.0

     total cpu time spent up to now is     2786.7 secs

     total energy              =    -922.00275830 Ry
     Harris-Foulkes estimate   =    -922.00284398 Ry
     estimated scf accuracy    <       0.00097902 Ry

     iteration # 13     ecut=   120.00 Ry     beta= 0.70
     Davidson diagonalization with overlap
     ethr =  8.74E-07,  avg # of iterations =  4.0

     total cpu time spent up to now is     2790.4 secs

     total energy              =    -922.00285663 Ry
     Harris-Foulkes estimate   =    -922.00287270 Ry
     estimated scf accuracy    <       0.00011423 Ry

     iteration # 14     ecut=   120.00 Ry     beta= 0.70
     Davidson diagonalization with overlap
     ethr =  1.02E-07,  avg # of iterations =  4.8

     total cpu time spent up to now is     2796.3 secs

     total energy              =    -922.00292018 Ry
     Harris-Foulkes estimate   =    -922.00292460 Ry
     estimated scf accuracy    <       0.00004480 Ry

     iteration # 15     ecut=   120.00 Ry     beta= 0.70
     Davidson diagonalization with overlap
     ethr =  4.00E-08,  avg # of iterations =  1.0

     total cpu time spent up to now is     2799.5 secs

     total energy              =    -922.00291073 Ry
     Harris-Foulkes estimate   =    -922.00292079 Ry
     estimated scf accuracy    <       0.00003437 Ry

     iteration # 16     ecut=   120.00 Ry     beta= 0.70
     Davidson diagonalization with overlap
     ethr =  3.07E-08,  avg # of iterations =  4.0

     total cpu time spent up to now is     2803.8 secs

     total energy              =    -922.00291686 Ry
     Harris-Foulkes estimate   =    -922.00291715 Ry
     estimated scf accuracy    <       0.00000055 Ry

     iteration # 17     ecut=   120.00 Ry     beta= 0.70
     Davidson diagonalization with overlap
     ethr =  4.89E-10,  avg # of iterations =  5.2

     total cpu time spent up to now is     2811.6 secs

     total energy              =    -922.00291732 Ry
     Harris-Foulkes estimate   =    -922.00291741 Ry
     estimated scf accuracy    <       0.00000046 Ry

     iteration # 18     ecut=   120.00 Ry     beta= 0.70
     Davidson diagonalization with overlap
     ethr =  4.07E-10,  avg # of iterations =  2.2

     total cpu time spent up to now is     2814.1 secs

     total energy              =    -922.00291731 Ry
     Harris-Foulkes estimate   =    -922.00291734 Ry
     estimated scf accuracy    <       0.00000017 Ry

     iteration # 19     ecut=   120.00 Ry     beta= 0.70
     Davidson diagonalization with overlap
     ethr =  1.55E-10,  avg # of iterations =  4.0

     total cpu time spent up to now is     2817.5 secs

     total energy              =    -922.00291735 Ry
     Harris-Foulkes estimate   =    -922.00291736 Ry
     estimated scf accuracy    <       0.00000003 Ry

     iteration # 20     ecut=   120.00 Ry     beta= 0.70
     Davidson diagonalization with overlap
     ethr =  3.07E-11,  avg # of iterations =  3.2

     total cpu time spent up to now is     2819.9 secs

     total energy              =    -922.00291735 Ry
     Harris-Foulkes estimate   =    -922.00291735 Ry
     estimated scf accuracy    <       0.00000002 Ry

     iteration # 21     ecut=   120.00 Ry     beta= 0.70
     Davidson diagonalization with overlap
     ethr =  2.17E-11,  avg # of iterations =  4.5

     total cpu time spent up to now is     2822.9 secs

     total energy              =    -922.00291735 Ry
     Harris-Foulkes estimate   =    -922.00291735 Ry
     estimated scf accuracy    <          6.4E-10 Ry

     iteration # 22     ecut=   120.00 Ry     beta= 0.70
     Davidson diagonalization with overlap
     ethr =  5.73E-13,  avg # of iterations =  5.0

     total cpu time spent up to now is     2827.5 secs

     total energy              =    -922.00291735 Ry
     Harris-Foulkes estimate   =    -922.00291735 Ry
     estimated scf accuracy    <          5.3E-09 Ry

     iteration # 23     ecut=   120.00 Ry     beta= 0.70
     Davidson diagonalization with overlap
     ethr =  5.73E-13,  avg # of iterations =  1.0

     total cpu time spent up to now is     2829.4 secs

     total energy              =    -922.00291735 Ry
     Harris-Foulkes estimate   =    -922.00291735 Ry
     estimated scf accuracy    <          4.9E-09 Ry

     iteration # 24     ecut=   120.00 Ry     beta= 0.70
     Davidson diagonalization with overlap
     ethr =  5.73E-13,  avg # of iterations =  5.0

     total cpu time spent up to now is     2833.5 secs

     total energy              =    -922.00291735 Ry
     Harris-Foulkes estimate   =    -922.00291735 Ry
     estimated scf accuracy    <          6.4E-10 Ry

     iteration # 25     ecut=   120.00 Ry     beta= 0.70
     Davidson diagonalization with overlap
     ethr =  5.68E-13,  avg # of iterations =  1.0

     total cpu time spent up to now is     2835.3 secs

     total energy              =    -922.00291735 Ry
     Harris-Foulkes estimate   =    -922.00291735 Ry
     estimated scf accuracy    <          3.5E-10 Ry

     iteration # 26     ecut=   120.00 Ry     beta= 0.70
     Davidson diagonalization with overlap
     ethr =  3.17E-13,  avg # of iterations =  4.0

     total cpu time spent up to now is     2838.8 secs

     total energy              =    -922.00291735 Ry
     Harris-Foulkes estimate   =    -922.00291735 Ry
     estimated scf accuracy    <          1.2E-10 Ry

     iteration # 27     ecut=   120.00 Ry     beta= 0.70
     Davidson diagonalization with overlap
     ethr =  1.10E-13,  avg # of iterations =  1.0

     total cpu time spent up to now is     2840.3 secs

     total energy              =    -922.00291735 Ry
     Harris-Foulkes estimate   =    -922.00291735 Ry
     estimated scf accuracy    <          6.0E-11 Ry

     iteration # 28     ecut=   120.00 Ry     beta= 0.70
     Davidson diagonalization with overlap
     ethr =  1.00E-13,  avg # of iterations =  3.0

     total cpu time spent up to now is     2841.9 secs

     total energy              =    -922.00291735 Ry
     Harris-Foulkes estimate   =    -922.00291735 Ry
     estimated scf accuracy    <          1.8E-11 Ry

     iteration # 29     ecut=   120.00 Ry     beta= 0.70
     Davidson diagonalization with overlap
     ethr =  1.00E-13,  avg # of iterations =  2.2

     total cpu time spent up to now is     2844.0 secs

     total energy              =    -922.00291735 Ry
     Harris-Foulkes estimate   =    -922.00291735 Ry
     estimated scf accuracy    <          5.8E-12 Ry

     iteration # 30     ecut=   120.00 Ry     beta= 0.70
     Davidson diagonalization with overlap
     ethr =  1.00E-13,  avg # of iterations =  1.0

     total cpu time spent up to now is     2845.8 secs

     total energy              =    -922.00291735 Ry
     Harris-Foulkes estimate   =    -922.00291735 Ry
     estimated scf accuracy    <          1.1E-12 Ry

     iteration # 31     ecut=   120.00 Ry     beta= 0.70
     Davidson diagonalization with overlap
     ethr =  1.00E-13,  avg # of iterations =  1.0

     total cpu time spent up to now is     2847.7 secs

     End of self-consistent calculation

          k = 0.0000 0.0000 0.0000 ( 29981 PWs)   bands (ev):

   -61.0007 -60.9986 -60.9895 -60.9874 -35.0428 -35.0403 -35.0316 -35.0259
   -34.9377 -34.8842 -34.8593 -34.8358 -34.8333 -34.8083 -34.7996 -34.7971
   -14.5276 -14.4112 -13.4338 -13.3341 -13.2601 -13.2035 -12.7869 -12.7696
   -12.6418 -12.6354  -1.4759  -1.4655  -1.2890  -1.2595  -1.0662  -0.7225
    -0.1470   0.0920   0.1960   0.2558   0.5063   0.5735   0.6561   0.7677
     0.7968   0.9374   1.0447   1.2118   1.2182   1.2964   1.3577   1.4086
     1.7159   1.7643   2.0354   2.0630   2.1509   2.2812   2.3752   2.4442

          k = 0.0000 0.2434 0.0000 ( 30052 PWs)   bands (ev):

   -61.0007 -60.9986 -60.9895 -60.9874 -35.0430 -35.0405 -35.0325 -35.0269
   -34.9376 -34.8841 -34.8593 -34.8357 -34.8332 -34.8083 -34.7996 -34.7971
   -14.4981 -14.3867 -13.4138 -13.3282 -13.2582 -13.1938 -12.7964 -12.7722
   -12.6447 -12.6119  -1.4926  -1.4819  -1.3056  -1.2779  -1.1718  -0.7530
    -0.7072  -0.3561  -0.2698  -0.2121   0.3750   0.3892   0.4501   0.8575
     0.8980   1.0594   1.2274   1.2753   1.3975   1.4747   1.5857   1.7183
     1.8894   1.9904   2.0073   2.1163   2.1975   2.3757   2.4519   2.5184

          k = 0.3328 0.0000 0.0000 ( 29972 PWs)   bands (ev):

   -60.9964 -60.9943 -60.9908 -60.9887 -35.0367 -35.0342 -35.0300 -35.0257
   -34.9351 -34.9097 -34.8947 -34.8870 -34.8385 -34.8333 -34.8175 -34.8066
   -13.9688 -13.8413 -13.3481 -13.2317 -13.2085 -13.1635 -12.7248 -12.7124
   -12.6656 -12.6607  -1.9463  -1.8708  -1.1110  -1.0585  -0.9636  -0.6319
    -0.5353  -0.2436  -0.2116   0.0701   0.1019   0.2129   0.5502   0.6487
     0.7127   0.7522   0.7708   0.8636   0.9896   1.0321   1.3005   1.3393
     1.4057   1.7359   2.1093   2.1908   2.2977   2.4810   2.6007   2.6235

          k = 0.3328 0.2434 0.0000 ( 29997 PWs)   bands (ev):

   -60.9963 -60.9943 -60.9908 -60.9887 -35.0371 -35.0346 -35.0307 -35.0264
   -34.9350 -34.9097 -34.8946 -34.8869 -34.8385 -34.8333 -34.8175 -34.8067
   -13.9434 -13.8231 -13.3332 -13.2308 -13.2017 -13.1553 -12.7324 -12.7128
   -12.6548 -12.6280  -1.9457  -1.8709  -1.1432  -1.0908  -1.0331  -0.6794
    -0.6642  -0.5501  -0.3853  -0.1950  -0.1000  -0.0857   0.3725   0.4186
     0.4418   0.5974   0.7008   0.7755   0.8219   1.1937   1.4696   1.6774
     1.8269   1.9400   2.2147   2.4471   2.4574   2.6074   2.6833   2.7187

     highest occupied level (ev):     2.7187

!    total energy              =    -922.00291735 Ry
     Harris-Foulkes estimate   =    -922.00291735 Ry
     estimated scf accuracy    <          9.3E-14 Ry

     The total energy is the sum of the following terms:

     one-electron contribution =    -664.15551824 Ry
     hartree contribution      =     367.16340832 Ry
     xc contribution           =    -173.98656059 Ry
     ewald contribution        =    -451.02424684 Ry

     convergence has been achieved in  31 iterations

     Forces acting on atoms (cartesian axes, Ry/au):

     atom    1 type  1   force =    -0.00000000   -0.00001887    0.00000030
     atom    2 type  1   force =     0.00000000    0.00001887   -0.00000030
     atom    3 type  1   force =     0.00000000    0.00001887    0.00000030
     atom    4 type  1   force =     0.00000000   -0.00001887   -0.00000030
     atom    5 type  2   force =    -0.00000000   -0.00000477    0.00000359
     atom    6 type  2   force =     0.00000000    0.00000477   -0.00000359
     atom    7 type  2   force =     0.00000000    0.00000477    0.00000359
     atom    8 type  2   force =    -0.00000000   -0.00000477   -0.00000359
     atom    9 type  2   force =     0.00000000    0.00000954   -0.00000072
     atom   10 type  2   force =     0.00000000   -0.00000954    0.00000072
     atom   11 type  2   force =    -0.00000000   -0.00000954   -0.00000072
     atom   12 type  2   force =     0.00000000   -0.00000318    0.00000000
     atom   13 type  2   force =    -0.00000000    0.00000318    0.00000000
     atom   14 type  2   force =    -0.00000000    0.00000954    0.00000072

     Total force =     0.000044     Total SCF correction =     0.000001


     Computing stress (Cartesian axis) and pressure

          total   stress  (Ry/bohr**3)                   (kbar)     P=   -0.01
  -0.00000008   0.00000000   0.00000000         -0.01      0.00      0.00
   0.00000000  -0.00000018   0.00000000          0.00     -0.03      0.00
   0.00000000   0.00000000  -0.00000003          0.00      0.00     -0.00


     Writing output data file v2o5.save/

     init_run     :      5.86s CPU      5.94s WALL (       2 calls)
     electrons    :   2611.94s CPU   2668.87s WALL (      33 calls)
     update_pot   :     46.05s CPU     46.38s WALL (      31 calls)
     forces       :     47.67s CPU     48.40s WALL (      33 calls)
     stress       :     77.95s CPU     78.77s WALL (      33 calls)

     Called by init_run:
     wfcinit      :      3.08s CPU      3.10s WALL (       2 calls)
     potinit      :      0.84s CPU      0.84s WALL (       2 calls)
     hinit0       :      1.37s CPU      1.38s WALL (       2 calls)

     Called by electrons:
     c_bands      :   2452.41s CPU   2502.43s WALL (    1176 calls)
     sum_band     :    124.84s CPU    128.39s WALL (    1176 calls)
     v_of_rho     :     22.12s CPU     24.05s WALL (    1198 calls)
     mix_rho      :     11.20s CPU     11.65s WALL (    1176 calls)

     Called by c_bands:
     init_us_2    :     28.05s CPU     28.86s WALL (    9680 calls)
     cegterg      :   2347.17s CPU   2395.08s WALL (    4704 calls)

     Called by sum_band:

     Called by *egterg:
     h_psi        :   1276.26s CPU   1303.00s WALL (   18845 calls)
     g_psi        :      4.32s CPU      4.36s WALL (   14133 calls)
     cdiaghg      :    200.56s CPU    207.37s WALL (   18669 calls)

     Called by h_psi:
     h_psi:pot    :   1273.26s CPU   1299.77s WALL (   18845 calls)
     h_psi:calbec :    465.01s CPU    473.05s WALL (   18845 calls)
     vloc_psi     :    502.94s CPU    518.04s WALL (   18845 calls)
     add_vuspsi   :    305.13s CPU    308.56s WALL (   18845 calls)

     General routines
     calbec       :    493.44s CPU    502.07s WALL (   19505 calls)
     fft          :     23.07s CPU     24.85s WALL (   12814 calls)
     ffts         :      1.52s CPU      1.67s WALL (    1176 calls)
     fftw         :    555.98s CPU    572.16s WALL ( 1621624 calls)

     Parallel routines
     fft_scatt_xy :     38.01s CPU     39.03s WALL ( 1635614 calls)
     fft_scatt_yz :    396.02s CPU    409.33s WALL ( 1635614 calls)

     PWSCF        :  46m31.92s CPU  47m31.65s WALL


   This run was terminated on:   1:18:44  27Oct2024            

=------------------------------------------------------------------------------=
   JOB DONE.
=------------------------------------------------------------------------------=
