
     Program PWSCF v.6.4.1 starts on 27Oct2024 at 15: 1: 0 

     This program is part of the open-source Quantum ESPRESSO suite
     for quantum simulation of materials; please cite
         "P. Giannozzi et al., J. Phys.:Condens. Matter 21 395502 (2009);
         "P. Giannozzi et al., J. Phys.:Condens. Matter 29 465901 (2017);
          URL http://www.quantum-espresso.org", 
     in publications or presentations arising from this work. More details at
     http://www.quantum-espresso.org/quote

     Parallel version (MPI), running on    16 processors

     MPI processes distributed on     1 nodes
     R & G space division:  proc/nbgrp/npool/nimage =      16
     Reading input from v2o5.vc-rlx.in

     Current dimensions of program PWSCF are:
     Max number of different atomic species (ntypx) = 10
     Max number of k-points (npk) =  40000
     Max angular momentum in pseudopotentials (lmaxx) =  3

     Atomic positions and unit cell read from directory:
     ./v2o5.save/

     Message from routine readpp:
     file ./v2o5.save/v.nc.upf not found
     Message from routine readpp:
     file ./v2o5.save/o.nc.upf not found

     Subspace diagonalization in iterative solution of the eigenvalue problem:
     one sub-group per band group will be used
     ELPA distributed-memory algorithm (size of sub-group:  2*  2 procs)


     Parallelization info
     --------------------
     sticks:   dense  smooth     PW     G-vecs:    dense   smooth      PW
     Min          86      86     23                 6674     6674     951
     Max          87      87     24                 6683     6683     962
     Sum        1383    1383    375               106833   106833   15283



     bravais-lattice index     =            8
     lattice parameter (alat)  =       6.7498  a.u.
     unit-cell volume          =    1351.1084 (a.u.)^3
     number of atoms/cell      =           14
     number of atomic types    =            2
     number of electrons       =       112.00
     number of Kohn-Sham states=           56
     kinetic-energy cutoff     =      70.0000  Ry
     charge density cutoff     =     280.0000  Ry
     convergence threshold     =      1.0E-10
     mixing beta               =       0.7000
     number of iterations used =            8  plain     mixing
     Exchange-correlation      = PBE ( 1  4  3  4 0 0)
     nstep                     =          500


     celldm(1)=   6.721604  celldm(2)=   1.306069  celldm(3)=   3.223897
     celldm(4)=   0.000000  celldm(5)=   0.000000  celldm(6)=   0.000000

     crystal axes: (cart. coord. in units of alat)
               a(1) = (   1.000000   0.000000   0.000000 )  
               a(2) = (   0.000000   1.367024   0.000000 )  
               a(3) = (   0.000000   0.000000   3.213949 )  

     reciprocal axes: (cart. coord. in units 2 pi/alat)
               b(1) = (  1.000000  0.000000  0.000000 )  
               b(2) = (  0.000000  0.731516  0.000000 )  
               b(3) = (  0.000000  0.000000  0.311144 )  


     PseudoPot. # 1 for V  read from file:
     /home/mpicuntureo/pseudos/v.nc.upf
     MD5 check sum: 40fb93c06b4f9d8c28c5ccd071294a04
     Pseudo is Norm-conserving + core correction, Zval = 13.0
     Generated using ONCVPSP code by D. R. Hamann
     Using radial grid of 1536 points,  6 beta functions with: 
                l(1) =   0
                l(2) =   0
                l(3) =   1
                l(4) =   1
                l(5) =   2
                l(6) =   2

     PseudoPot. # 2 for O  read from file:
     /home/mpicuntureo/pseudos/o.nc.upf
     MD5 check sum: 3e3f909f7470e8921608ab6b1f57bbae
     Pseudo is Norm-conserving + core correction, Zval =  6.0
     Generated using ONCVPSP code by D. R. Hamann
     Using radial grid of  936 points,  5 beta functions with: 
                l(1) =   0
                l(2) =   0
                l(3) =   1
                l(4) =   1
                l(5) =   2

     atomic species   valence    mass     pseudopotential
        V             13.00    50.94150     V ( 1.00)
        O              6.00    15.99940     O ( 1.00)

      8 Sym. Ops., with inversion, found ( 4 have fractional translation)



   Cartesian axes

     site n.     atom                  positions (alat units)
         1           V   tau(   1) = (   0.0000000   0.5288970   2.0846694  )
         2           V   tau(   2) = (   0.5000000   0.8381268   2.7362542  )
         3           V   tau(   3) = (   0.5000000   0.8381268   0.4776949  )
         4           V   tau(   4) = (   0.0000000   0.5288970   1.1292796  )
         5           O   tau(   5) = (   0.5000000   0.6707425   2.1896557  )
         6           O   tau(   6) = (   0.0000000   0.6962814   2.6312678  )
         7           O   tau(   7) = (   0.0000000   0.6962814   0.5826812  )
         8           O   tau(   8) = (   0.5000000   0.6707425   1.0242933  )
         9           O   tau(   9) = (  -0.0000000   0.0640003   1.1439190  )
        10           O   tau(  10) = (   0.5000000   1.3030235   0.4630555  )
        11           O   tau(  11) = (   0.5000000   1.3030235   2.7508935  )
        12           O   tau(  12) = (   0.5000000   0.6856670   0.0000000  )
        13           O   tau(  13) = (   0.0000000   0.6813569   1.6069745  )
        14           O   tau(  14) = (   0.0000000   0.0640003   2.0700300  )

     number of k points=     4
                       cart. coord. in units 2pi/alat
        k(    1) = (   0.0000000   0.0000000   0.0000000), wk =   0.2222222
        k(    2) = (   0.0000000   0.2438387   0.0000000), wk =   0.4444444
        k(    3) = (   0.3333333   0.0000000   0.0000000), wk =   0.4444444
        k(    4) = (   0.3333333   0.2438387   0.0000000), wk =   0.8888889

     Dense  grid:   106833 G-vectors     FFT dimensions: (  36,  50, 120)

     Estimated max dynamical RAM per process >      22.34 MB

     Estimated total dynamical RAM >     357.39 MB

     Check: negative core charge=   -0.000005

     The initial density is read from file :
     ./v2o5.save/charge-density

     Cannot read wfcs: file not found
     Starting wfcs are   80 randomized atomic wfcs

     total cpu time spent up to now is        2.6 secs

     Self-consistent Calculation

     iteration #  1     ecut=    70.00 Ry     beta= 0.70
     Davidson diagonalization with overlap
     ethr =  1.00E-05,  avg # of iterations =  7.8

     Threshold (ethr) on eigenvalues was too large:
     Diagonalizing with lowered threshold

     Davidson diagonalization with overlap
     ethr =  1.23E-08,  avg # of iterations =  8.8

     total cpu time spent up to now is       12.1 secs

     total energy              =    -921.99183557 Ry
     Harris-Foulkes estimate   =    -921.99183560 Ry
     estimated scf accuracy    <       0.00000003 Ry

     iteration #  2     ecut=    70.00 Ry     beta= 0.70
     Davidson diagonalization with overlap
     ethr =  2.57E-11,  avg # of iterations =  7.2

     total cpu time spent up to now is       16.2 secs

     total energy              =    -921.99183571 Ry
     Harris-Foulkes estimate   =    -921.99183584 Ry
     estimated scf accuracy    <       0.00000064 Ry

     iteration #  3     ecut=    70.00 Ry     beta= 0.70
     Davidson diagonalization with overlap
     ethr =  2.57E-11,  avg # of iterations =  5.5

     total cpu time spent up to now is       19.6 secs

     total energy              =    -921.99183575 Ry
     Harris-Foulkes estimate   =    -921.99183576 Ry
     estimated scf accuracy    <       0.00000003 Ry

     iteration #  4     ecut=    70.00 Ry     beta= 0.70
     Davidson diagonalization with overlap
     ethr =  2.29E-11,  avg # of iterations =  1.5

     total cpu time spent up to now is       20.9 secs

     total energy              =    -921.99183575 Ry
     Harris-Foulkes estimate   =    -921.99183575 Ry
     estimated scf accuracy    <       0.00000001 Ry

     iteration #  5     ecut=    70.00 Ry     beta= 0.70
     Davidson diagonalization with overlap
     ethr =  1.23E-11,  avg # of iterations =  4.0

     total cpu time spent up to now is       22.6 secs

     total energy              =    -921.99183575 Ry
     Harris-Foulkes estimate   =    -921.99183575 Ry
     estimated scf accuracy    <          7.7E-09 Ry

     iteration #  6     ecut=    70.00 Ry     beta= 0.70
     Davidson diagonalization with overlap
     ethr =  6.83E-12,  avg # of iterations =  2.5

     total cpu time spent up to now is       24.0 secs

     total energy              =    -921.99183575 Ry
     Harris-Foulkes estimate   =    -921.99183575 Ry
     estimated scf accuracy    <          6.0E-09 Ry

     iteration #  7     ecut=    70.00 Ry     beta= 0.70
     Davidson diagonalization with overlap
     ethr =  5.38E-12,  avg # of iterations =  1.0

     total cpu time spent up to now is       25.3 secs

     total energy              =    -921.99183575 Ry
     Harris-Foulkes estimate   =    -921.99183575 Ry
     estimated scf accuracy    <          4.6E-09 Ry

     iteration #  8     ecut=    70.00 Ry     beta= 0.70
     Davidson diagonalization with overlap
     ethr =  4.10E-12,  avg # of iterations =  1.0

     total cpu time spent up to now is       26.5 secs

     total energy              =    -921.99183575 Ry
     Harris-Foulkes estimate   =    -921.99183575 Ry
     estimated scf accuracy    <          4.0E-09 Ry

     iteration #  9     ecut=    70.00 Ry     beta= 0.70
     Davidson diagonalization with overlap
     ethr =  3.58E-12,  avg # of iterations =  1.5

     total cpu time spent up to now is       27.7 secs

     total energy              =    -921.99183575 Ry
     Harris-Foulkes estimate   =    -921.99183575 Ry
     estimated scf accuracy    <          3.0E-09 Ry

     iteration # 10     ecut=    70.00 Ry     beta= 0.70
     Davidson diagonalization with overlap
     ethr =  2.71E-12,  avg # of iterations =  3.5

     total cpu time spent up to now is       29.0 secs

     total energy              =    -921.99183575 Ry
     Harris-Foulkes estimate   =    -921.99183575 Ry
     estimated scf accuracy    <          2.2E-09 Ry

     iteration # 11     ecut=    70.00 Ry     beta= 0.70
     Davidson diagonalization with overlap
     ethr =  1.93E-12,  avg # of iterations =  5.0

     total cpu time spent up to now is       31.7 secs

     total energy              =    -921.99183575 Ry
     Harris-Foulkes estimate   =    -921.99183575 Ry
     estimated scf accuracy    <          5.8E-09 Ry

     iteration # 12     ecut=    70.00 Ry     beta= 0.70
     Davidson diagonalization with overlap
     ethr =  1.93E-12,  avg # of iterations =  1.0

     total cpu time spent up to now is       32.8 secs

     total energy              =    -921.99183575 Ry
     Harris-Foulkes estimate   =    -921.99183575 Ry
     estimated scf accuracy    <          5.6E-09 Ry

     iteration # 13     ecut=    70.00 Ry     beta= 0.70
     Davidson diagonalization with overlap
     ethr =  1.93E-12,  avg # of iterations =  1.0

     total cpu time spent up to now is       33.9 secs

     total energy              =    -921.99183575 Ry
     Harris-Foulkes estimate   =    -921.99183575 Ry
     estimated scf accuracy    <          5.1E-09 Ry

     iteration # 14     ecut=    70.00 Ry     beta= 0.70
     Davidson diagonalization with overlap
     ethr =  1.93E-12,  avg # of iterations =  3.0

     total cpu time spent up to now is       35.3 secs

     total energy              =    -921.99183575 Ry
     Harris-Foulkes estimate   =    -921.99183575 Ry
     estimated scf accuracy    <          1.7E-09 Ry

     iteration # 15     ecut=    70.00 Ry     beta= 0.70
     Davidson diagonalization with overlap
     ethr =  1.49E-12,  avg # of iterations =  3.0

     total cpu time spent up to now is       36.5 secs

     total energy              =    -921.99183575 Ry
     Harris-Foulkes estimate   =    -921.99183575 Ry
     estimated scf accuracy    <          2.6E-09 Ry

     iteration # 16     ecut=    70.00 Ry     beta= 0.70
     Davidson diagonalization with overlap
     ethr =  1.49E-12,  avg # of iterations =  1.0

     total cpu time spent up to now is       37.7 secs

     total energy              =    -921.99183575 Ry
     Harris-Foulkes estimate   =    -921.99183575 Ry
     estimated scf accuracy    <          2.4E-09 Ry

     iteration # 17     ecut=    70.00 Ry     beta= 0.70
     Davidson diagonalization with overlap
     ethr =  1.49E-12,  avg # of iterations =  4.8

     total cpu time spent up to now is       39.8 secs

     total energy              =    -921.99183575 Ry
     Harris-Foulkes estimate   =    -921.99183575 Ry
     estimated scf accuracy    <          5.8E-10 Ry

     iteration # 18     ecut=    70.00 Ry     beta= 0.70
     Davidson diagonalization with overlap
     ethr =  5.17E-13,  avg # of iterations =  4.2

     total cpu time spent up to now is       41.7 secs

     total energy              =    -921.99183575 Ry
     Harris-Foulkes estimate   =    -921.99183575 Ry
     estimated scf accuracy    <          1.6E-10 Ry

     iteration # 19     ecut=    70.00 Ry     beta= 0.70
     Davidson diagonalization with overlap
     ethr =  1.46E-13,  avg # of iterations =  4.0

     total cpu time spent up to now is       43.3 secs

     End of self-consistent calculation

          k = 0.0000 0.0000 0.0000 ( 13301 PWs)   bands (ev):

   -60.3884 -60.3863 -60.3768 -60.3745 -34.4285 -34.4259 -34.4169 -34.4110
   -34.3331 -34.2781 -34.2517 -34.2277 -34.2251 -34.1993 -34.1903 -34.1877
   -13.9652 -13.8436 -12.8585 -12.7598 -12.6756 -12.6094 -12.2003 -12.1914
   -12.0422 -12.0379  -0.8788  -0.8674  -0.7326  -0.6801  -0.4783  -0.1112
     0.5325   0.6915   0.8729   0.9099   1.1351   1.1965   1.3814   1.3914
     1.4717   1.5175   1.6528   1.7591   1.7917   1.8901   1.9800   2.0038
     2.1933   2.4131   2.6400   2.6691   2.7204   2.8907   2.9251   3.0314

          k = 0.0000 0.2563 0.0000 ( 13296 PWs)   bands (ev):

   -60.3884 -60.3862 -60.3767 -60.3746 -34.4293 -34.4267 -34.4188 -34.4129
   -34.3328 -34.2778 -34.2517 -34.2276 -34.2250 -34.1993 -34.1903 -34.1878
   -13.9165 -13.8030 -12.8197 -12.7464 -12.6715 -12.5939 -12.2139 -12.1858
   -12.0376 -12.0038  -0.9083  -0.8966  -0.7599  -0.7120  -0.6158  -0.2809
    -0.1213   0.1346   0.2150   0.3149   0.8857   0.9369   1.0115   1.4368
     1.4815   1.6518   1.8184   1.8803   2.0334   2.1134   2.2263   2.3784
     2.5781   2.6162   2.6286   2.7432   2.7933   3.0327   3.1068   3.2064

          k = 0.3347 0.0000 0.0000 ( 13392 PWs)   bands (ev):

   -60.3840 -60.3818 -60.3781 -60.3761 -34.4221 -34.4197 -34.4150 -34.4107
   -34.3305 -34.3046 -34.2891 -34.2814 -34.2309 -34.2258 -34.2094 -34.1978
   -13.3942 -13.2591 -12.7637 -12.6385 -12.6160 -12.5661 -12.1348 -12.1311
   -12.0830 -12.0639  -1.3732  -1.2965  -0.5355  -0.4874  -0.3758  -0.0544
     0.0439   0.3890   0.3906   0.7121   0.7367   0.8283   1.1792   1.2849
     1.3354   1.4463   1.4664   1.5759   1.6276   1.7283   1.8359   1.8918
     1.9850   2.3042   2.6482   2.7577   2.8446   3.0270   3.1894   3.2063

          k = 0.3347 0.2563 0.0000 ( 13389 PWs)   bands (ev):

   -60.3840 -60.3818 -60.3782 -60.3760 -34.4231 -34.4206 -34.4166 -34.4122
   -34.3303 -34.3045 -34.2889 -34.2813 -34.2309 -34.2258 -34.2094 -34.1979
   -13.3520 -13.2287 -12.7380 -12.6367 -12.6020 -12.5526 -12.1402 -12.1158
   -12.0518 -12.0245  -1.3743  -1.2970  -0.5860  -0.5367  -0.4720  -0.1833
    -0.1111  -0.0023   0.1124   0.3189   0.4139   0.4999   0.9310   0.9865
     1.0040   1.1122   1.2490   1.3371   1.4306   1.8301   2.1037   2.3126
     2.5026   2.5714   2.8786   3.0998   3.1202   3.2693   3.3342   3.3485

     highest occupied level (ev):     3.3485

!    total energy              =    -921.99183575 Ry
     Harris-Foulkes estimate   =    -921.99183575 Ry
     estimated scf accuracy    <          2.2E-11 Ry

     The total energy is the sum of the following terms:

     one-electron contribution =    -619.66899616 Ry
     hartree contribution      =     347.43464430 Ry
     xc contribution           =    -174.06094759 Ry
     ewald contribution        =    -475.69653630 Ry

     convergence has been achieved in  19 iterations

     Forces acting on atoms (cartesian axes, Ry/au):

     atom    1 type  1   force =     0.00000000   -0.00006165   -0.00000163
     atom    2 type  1   force =     0.00000000    0.00006165    0.00000163
     atom    3 type  1   force =     0.00000000    0.00006165   -0.00000163
     atom    4 type  1   force =     0.00000000   -0.00006165    0.00000163
     atom    5 type  2   force =     0.00000000   -0.00000327   -0.00000452
     atom    6 type  2   force =     0.00000000    0.00000327    0.00000452
     atom    7 type  2   force =     0.00000000    0.00000327   -0.00000452
     atom    8 type  2   force =     0.00000000   -0.00000327    0.00000452
     atom    9 type  2   force =     0.00000000    0.00006131    0.00000222
     atom   10 type  2   force =    -0.00000000   -0.00006131   -0.00000222
     atom   11 type  2   force =     0.00000000   -0.00006131    0.00000222
     atom   12 type  2   force =    -0.00000000    0.00000019    0.00000000
     atom   13 type  2   force =     0.00000000   -0.00000019    0.00000000
     atom   14 type  2   force =     0.00000000    0.00006131   -0.00000222

     Total force =     0.000174     Total SCF correction =     0.000014


     Computing stress (Cartesian axis) and pressure

          total   stress  (Ry/bohr**3)                   (kbar)     P=   -0.03
   0.00000003   0.00000000   0.00000000          0.00      0.00      0.00
   0.00000000  -0.00000062   0.00000000          0.00     -0.09      0.00
   0.00000000   0.00000000   0.00000001          0.00      0.00      0.00

     Message from routine bfgs:
     history already reset at previous step: stopping

     bfgs converged in  37 scf cycles and  35 bfgs steps
     (criteria: energy <  1.0E-04 Ry, force <  1.0E-05Ry/Bohr, cell <  5.0E-01kbar)

     End of BFGS Geometry Optimization

     Final enthalpy =    -921.9918357521 Ry
Begin final coordinates
     new unit-cell volume =   1278.69288 a.u.^3 (   189.48273 Ang^3 )
     density =      3.18782 g/cm^3

CELL_PARAMETERS (alat=  6.74981256)
   0.995820904   0.000000000   0.000000000
   0.000000000   1.300611053   0.000000000
   0.000000000   0.000000000   3.210424269

ATOMIC_POSITIONS (crystal)
V        0.000000000   0.386896691   0.648631749
V        0.500000002   0.613103313   0.851368258
V        0.500000002   0.613103313   0.148631748
V        0.000000000   0.386896691   0.351368254
O        0.500000002   0.490658946   0.681297589
O        0.000000000   0.509341059   0.818702417
O        0.000000000   0.509341059   0.181297588
O        0.500000002   0.490658946   0.318702415
O       -0.000000000   0.046817253   0.355923205
O        0.500000002   0.953182751   0.144076799
O        0.500000002   0.953182751   0.855923206
O        0.500000002   0.501576458   0.000000000
O        0.000000000   0.498423547   0.500000002
O        0.000000000   0.046817253   0.644076802
End final coordinates



     Writing output data file v2o5.save/

     A final scf calculation at the relaxed structure.
     The G-vectors are recalculated for the final unit cell
     Results may differ from those at the preceding step.

     Parallelization info
     --------------------
     sticks:   dense  smooth     PW     G-vecs:    dense   smooth      PW
     Min          82      82     22                 6322     6322     902
     Max          83      83     23                 6328     6328     909
     Sum        1317    1317    367               101211   101211   14527



     bravais-lattice index     =            8
     lattice parameter (alat)  =       6.7498  a.u.
     unit-cell volume          =    1278.6929 (a.u.)^3
     number of atoms/cell      =           14
     number of atomic types    =            2
     number of electrons       =       112.00
     number of Kohn-Sham states=           56
     kinetic-energy cutoff     =      70.0000  Ry
     charge density cutoff     =     280.0000  Ry
     convergence threshold     =      1.0E-10
     mixing beta               =       0.7000
     number of iterations used =            8  plain     mixing
     Exchange-correlation      = PBE ( 1  4  3  4 0 0)

     celldm(1)=   6.721604  celldm(2)=   1.306069  celldm(3)=   3.223897
     celldm(4)=   0.000000  celldm(5)=   0.000000  celldm(6)=   0.000000

     crystal axes: (cart. coord. in units of alat)
               a(1) = (   0.995821   0.000000   0.000000 )  
               a(2) = (   0.000000   1.300611   0.000000 )  
               a(3) = (   0.000000   0.000000   3.210424 )  

     reciprocal axes: (cart. coord. in units 2 pi/alat)
               b(1) = (  1.004197  0.000000  0.000000 )  
               b(2) = (  0.000000  0.768869  0.000000 )  
               b(3) = (  0.000000  0.000000  0.311485 )  


     PseudoPot. # 1 for V  read from file:
     /home/mpicuntureo/pseudos/v.nc.upf
     MD5 check sum: 40fb93c06b4f9d8c28c5ccd071294a04
     Pseudo is Norm-conserving + core correction, Zval = 13.0
     Generated using ONCVPSP code by D. R. Hamann
     Using radial grid of 1536 points,  6 beta functions with: 
                l(1) =   0
                l(2) =   0
                l(3) =   1
                l(4) =   1
                l(5) =   2
                l(6) =   2

     PseudoPot. # 2 for O  read from file:
     /home/mpicuntureo/pseudos/o.nc.upf
     MD5 check sum: 3e3f909f7470e8921608ab6b1f57bbae
     Pseudo is Norm-conserving + core correction, Zval =  6.0
     Generated using ONCVPSP code by D. R. Hamann
     Using radial grid of  936 points,  5 beta functions with: 
                l(1) =   0
                l(2) =   0
                l(3) =   1
                l(4) =   1
                l(5) =   2

     atomic species   valence    mass     pseudopotential
        V             13.00    50.94150     V ( 1.00)
        O              6.00    15.99940     O ( 1.00)

      8 Sym. Ops., with inversion, found ( 4 have fractional translation)



   Cartesian axes

     site n.     atom                  positions (alat units)
         1           V   tau(   1) = (   0.0000000   0.5032021   2.0823831  )
         2           V   tau(   2) = (   0.4979105   0.7974089   2.7332533  )
         3           V   tau(   3) = (   0.4979105   0.7974089   0.4771710  )
         4           V   tau(   4) = (   0.0000000   0.5032021   1.1280412  )
         5           O   tau(   5) = (   0.4979105   0.6381564   2.1872543  )
         6           O   tau(   6) = (   0.0000000   0.6624546   2.6283821  )
         7           O   tau(   7) = (   0.0000000   0.6624546   0.5820422  )
         8           O   tau(   8) = (   0.4979105   0.6381564   1.0231700  )
         9           O   tau(   9) = (  -0.0000000   0.0608910   1.1426645  )
        10           O   tau(  10) = (   0.4979105   1.2397200   0.4625477  )
        11           O   tau(  11) = (   0.4979105   1.2397200   2.7478766  )
        12           O   tau(  12) = (   0.4979105   0.6523559   0.0000000  )
        13           O   tau(  13) = (   0.0000000   0.6482552   1.6052121  )
        14           O   tau(  14) = (   0.0000000   0.0608910   2.0677598  )

     number of k points=     4
                       cart. coord. in units 2pi/alat
        k(    1) = (   0.0000000   0.0000000   0.0000000), wk =   0.2222222
        k(    2) = (   0.0000000   0.2562898   0.0000000), wk =   0.4444444
        k(    3) = (   0.3347322   0.0000000   0.0000000), wk =   0.4444444
        k(    4) = (   0.3347322   0.2562898   0.0000000), wk =   0.8888889

     Dense  grid:   101211 G-vectors     FFT dimensions: (  36,  48, 120)

     Estimated max dynamical RAM per process >      21.61 MB

     Estimated total dynamical RAM >     345.68 MB

     Check: negative core charge=   -0.000007

     Initial potential from superposition of free atoms

     starting charge  111.99579, renormalised to  112.00000
     Starting wfcs are   80 randomized atomic wfcs

     total cpu time spent up to now is       47.5 secs

     Self-consistent Calculation

     iteration #  1     ecut=    70.00 Ry     beta= 0.70
     Davidson diagonalization with overlap
     ethr =  1.00E-06,  avg # of iterations =  7.8

     total cpu time spent up to now is       52.4 secs

     total energy              =    -917.42454015 Ry
     Harris-Foulkes estimate   =    -923.49315846 Ry
     estimated scf accuracy    <       7.62246145 Ry

     iteration #  2     ecut=    70.00 Ry     beta= 0.70
     Davidson diagonalization with overlap
     ethr =  6.81E-03,  avg # of iterations =  6.2

     total cpu time spent up to now is       55.6 secs

     total energy              =    -907.82361212 Ry
     Harris-Foulkes estimate   =    -938.27442697 Ry
     estimated scf accuracy    <     138.30477740 Ry

     iteration #  3     ecut=    70.00 Ry     beta= 0.70
     Davidson diagonalization with overlap
     ethr =  6.81E-03,  avg # of iterations =  5.2

     total cpu time spent up to now is       58.7 secs

     total energy              =    -921.72685235 Ry
     Harris-Foulkes estimate   =    -922.57293008 Ry
     estimated scf accuracy    <       2.80745068 Ry

     iteration #  4     ecut=    70.00 Ry     beta= 0.70
     Davidson diagonalization with overlap
     ethr =  2.51E-03,  avg # of iterations =  4.0

     total cpu time spent up to now is       60.4 secs

     total energy              =    -921.92854215 Ry
     Harris-Foulkes estimate   =    -922.06661088 Ry
     estimated scf accuracy    <       0.86031385 Ry

     iteration #  5     ecut=    70.00 Ry     beta= 0.70
     Davidson diagonalization with overlap
     ethr =  7.68E-04,  avg # of iterations =  3.8

     total cpu time spent up to now is       61.7 secs

     total energy              =    -921.87589352 Ry
     Harris-Foulkes estimate   =    -921.99271112 Ry
     estimated scf accuracy    <       0.43454746 Ry

     iteration #  6     ecut=    70.00 Ry     beta= 0.70
     Davidson diagonalization with overlap
     ethr =  3.88E-04,  avg # of iterations =  4.2

     total cpu time spent up to now is       63.8 secs

     total energy              =    -921.99304141 Ry
     Harris-Foulkes estimate   =    -921.99987048 Ry
     estimated scf accuracy    <       0.11606444 Ry

     iteration #  7     ecut=    70.00 Ry     beta= 0.70
     Davidson diagonalization with overlap
     ethr =  1.04E-04,  avg # of iterations =  2.5

     total cpu time spent up to now is       64.9 secs

     total energy              =    -921.97551885 Ry
     Harris-Foulkes estimate   =    -921.99593577 Ry
     estimated scf accuracy    <       0.10228840 Ry

     iteration #  8     ecut=    70.00 Ry     beta= 0.70
     Davidson diagonalization with overlap
     ethr =  9.13E-05,  avg # of iterations =  3.0

     total cpu time spent up to now is       66.1 secs

     total energy              =    -921.97719836 Ry
     Harris-Foulkes estimate   =    -921.98273209 Ry
     estimated scf accuracy    <       0.02370997 Ry

     iteration #  9     ecut=    70.00 Ry     beta= 0.70
     Davidson diagonalization with overlap
     ethr =  2.12E-05,  avg # of iterations =  4.2

     total cpu time spent up to now is       68.2 secs

     total energy              =    -921.98490346 Ry
     Harris-Foulkes estimate   =    -921.98618002 Ry
     estimated scf accuracy    <       0.00815570 Ry

     iteration # 10     ecut=    70.00 Ry     beta= 0.70
     Davidson diagonalization with overlap
     ethr =  7.28E-06,  avg # of iterations =  1.2

     total cpu time spent up to now is       69.2 secs

     total energy              =    -921.98386753 Ry
     Harris-Foulkes estimate   =    -921.98511261 Ry
     estimated scf accuracy    <       0.00499378 Ry

     iteration # 11     ecut=    70.00 Ry     beta= 0.70
     Davidson diagonalization with overlap
     ethr =  4.46E-06,  avg # of iterations =  4.0

     total cpu time spent up to now is       71.1 secs

     total energy              =    -921.98491153 Ry
     Harris-Foulkes estimate   =    -921.98520660 Ry
     estimated scf accuracy    <       0.00122976 Ry

     iteration # 12     ecut=    70.00 Ry     beta= 0.70
     Davidson diagonalization with overlap
     ethr =  1.10E-06,  avg # of iterations =  3.2

     total cpu time spent up to now is       72.4 secs

     total energy              =    -921.98494266 Ry
     Harris-Foulkes estimate   =    -921.98498872 Ry
     estimated scf accuracy    <       0.00032143 Ry

     iteration # 13     ecut=    70.00 Ry     beta= 0.70
     Davidson diagonalization with overlap
     ethr =  2.87E-07,  avg # of iterations =  5.0

     total cpu time spent up to now is       74.4 secs

     total energy              =    -921.98504188 Ry
     Harris-Foulkes estimate   =    -921.98505084 Ry
     estimated scf accuracy    <       0.00003466 Ry

     iteration # 14     ecut=    70.00 Ry     beta= 0.70
     Davidson diagonalization with overlap
     ethr =  3.09E-08,  avg # of iterations =  3.8

     total cpu time spent up to now is       75.8 secs

     total energy              =    -921.98504315 Ry
     Harris-Foulkes estimate   =    -921.98504466 Ry
     estimated scf accuracy    <       0.00001256 Ry

     iteration # 15     ecut=    70.00 Ry     beta= 0.70
     Davidson diagonalization with overlap
     ethr =  1.12E-08,  avg # of iterations =  4.0

     total cpu time spent up to now is       77.6 secs

     total energy              =    -921.98504597 Ry
     Harris-Foulkes estimate   =    -921.98504623 Ry
     estimated scf accuracy    <       0.00000081 Ry

     iteration # 16     ecut=    70.00 Ry     beta= 0.70
     Davidson diagonalization with overlap
     ethr =  7.23E-10,  avg # of iterations =  4.8

     total cpu time spent up to now is       79.9 secs

     total energy              =    -921.98504621 Ry
     Harris-Foulkes estimate   =    -921.98504628 Ry
     estimated scf accuracy    <       0.00000084 Ry

     iteration # 17     ecut=    70.00 Ry     beta= 0.70
     Davidson diagonalization with overlap
     ethr =  7.23E-10,  avg # of iterations =  1.0

     total cpu time spent up to now is       81.0 secs

     total energy              =    -921.98504610 Ry
     Harris-Foulkes estimate   =    -921.98504622 Ry
     estimated scf accuracy    <       0.00000065 Ry

     iteration # 18     ecut=    70.00 Ry     beta= 0.70
     Davidson diagonalization with overlap
     ethr =  5.77E-10,  avg # of iterations =  3.0

     total cpu time spent up to now is       82.4 secs

     total energy              =    -921.98504614 Ry
     Harris-Foulkes estimate   =    -921.98504615 Ry
     estimated scf accuracy    <       0.00000006 Ry

     iteration # 19     ecut=    70.00 Ry     beta= 0.70
     Davidson diagonalization with overlap
     ethr =  5.35E-11,  avg # of iterations =  4.8

     total cpu time spent up to now is       84.7 secs

     total energy              =    -921.98504617 Ry
     Harris-Foulkes estimate   =    -921.98504617 Ry
     estimated scf accuracy    <       0.00000002 Ry

     iteration # 20     ecut=    70.00 Ry     beta= 0.70
     Davidson diagonalization with overlap
     ethr =  1.74E-11,  avg # of iterations =  3.2

     total cpu time spent up to now is       85.9 secs

     total energy              =    -921.98504617 Ry
     Harris-Foulkes estimate   =    -921.98504617 Ry
     estimated scf accuracy    <          5.8E-09 Ry

     iteration # 21     ecut=    70.00 Ry     beta= 0.70
     Davidson diagonalization with overlap
     ethr =  5.17E-12,  avg # of iterations =  5.0

     total cpu time spent up to now is       88.4 secs

     total energy              =    -921.98504617 Ry
     Harris-Foulkes estimate   =    -921.98504617 Ry
     estimated scf accuracy    <       0.00000002 Ry

     iteration # 22     ecut=    70.00 Ry     beta= 0.70
     Davidson diagonalization with overlap
     ethr =  5.17E-12,  avg # of iterations =  1.0

     total cpu time spent up to now is       89.6 secs

     total energy              =    -921.98504617 Ry
     Harris-Foulkes estimate   =    -921.98504617 Ry
     estimated scf accuracy    <       0.00000001 Ry

     iteration # 23     ecut=    70.00 Ry     beta= 0.70
     Davidson diagonalization with overlap
     ethr =  5.17E-12,  avg # of iterations =  4.0

     total cpu time spent up to now is       91.4 secs

     total energy              =    -921.98504617 Ry
     Harris-Foulkes estimate   =    -921.98504617 Ry
     estimated scf accuracy    <          2.8E-10 Ry

     iteration # 24     ecut=    70.00 Ry     beta= 0.70
     Davidson diagonalization with overlap
     ethr =  2.52E-13,  avg # of iterations =  3.5

     total cpu time spent up to now is       92.9 secs

     total energy              =    -921.98504617 Ry
     Harris-Foulkes estimate   =    -921.98504617 Ry
     estimated scf accuracy    <          2.4E-10 Ry

     iteration # 25     ecut=    70.00 Ry     beta= 0.70
     Davidson diagonalization with overlap
     ethr =  2.16E-13,  avg # of iterations =  1.0

     total cpu time spent up to now is       93.9 secs

     total energy              =    -921.98504617 Ry
     Harris-Foulkes estimate   =    -921.98504617 Ry
     estimated scf accuracy    <          2.5E-10 Ry

     iteration # 26     ecut=    70.00 Ry     beta= 0.70
     Davidson diagonalization with overlap
     ethr =  2.16E-13,  avg # of iterations =  4.0

     total cpu time spent up to now is       95.2 secs

     total energy              =    -921.98504617 Ry
     Harris-Foulkes estimate   =    -921.98504617 Ry
     estimated scf accuracy    <          1.7E-10 Ry

     iteration # 27     ecut=    70.00 Ry     beta= 0.70
     Davidson diagonalization with overlap
     ethr =  1.55E-13,  avg # of iterations =  1.0

     total cpu time spent up to now is       96.3 secs

     total energy              =    -921.98504617 Ry
     Harris-Foulkes estimate   =    -921.98504617 Ry
     estimated scf accuracy    <          1.3E-10 Ry

     iteration # 28     ecut=    70.00 Ry     beta= 0.70
     Davidson diagonalization with overlap
     ethr =  1.15E-13,  avg # of iterations =  3.5

     total cpu time spent up to now is       97.7 secs

     End of self-consistent calculation

          k = 0.0000 0.0000 0.0000 ( 12623 PWs)   bands (ev):

   -60.3916 -60.3891 -60.3797 -60.3776 -34.4320 -34.4294 -34.4204 -34.4145
   -34.3367 -34.2818 -34.2554 -34.2314 -34.2288 -34.2030 -34.1941 -34.1915
   -13.9669 -13.8454 -12.8603 -12.7617 -12.6776 -12.6113 -12.2015 -12.1925
   -12.0433 -12.0392  -0.8797  -0.8685  -0.7338  -0.6809  -0.4793  -0.1118
     0.5319   0.6913   0.8731   0.9093   1.1348   1.1961   1.3820   1.3921
     1.4725   1.5179   1.6520   1.7594   1.7908   1.8902   1.9798   2.0039
     2.1930   2.4121   2.6390   2.6685   2.7204   2.8906   2.9252   3.0307

          k = 0.0000 0.2563 0.0000 ( 12590 PWs)   bands (ev):

   -60.3913 -60.3892 -60.3795 -60.3775 -34.4328 -34.4301 -34.4223 -34.4163
   -34.3365 -34.2815 -34.2554 -34.2313 -34.2287 -34.2031 -34.1941 -34.1915
   -13.9183 -13.8048 -12.8215 -12.7483 -12.6735 -12.5959 -12.2150 -12.1869
   -12.0387 -12.0050  -0.9093  -0.8975  -0.7609  -0.7130  -0.6163  -0.2806
    -0.1220   0.1341   0.2153   0.3149   0.8864   0.9363   1.0111   1.4372
     1.4815   1.6509   1.8175   1.8804   2.0334   2.1134   2.2260   2.3783
     2.5781   2.6158   2.6281   2.7431   2.7935   3.0327   3.1064   3.2064

          k = 0.3347 0.0000 0.0000 ( 12666 PWs)   bands (ev):

   -60.3870 -60.3847 -60.3812 -60.3788 -34.4256 -34.4231 -34.4185 -34.4141
   -34.3342 -34.3083 -34.2928 -34.2851 -34.2346 -34.2295 -34.2131 -34.2015
   -13.3960 -13.2609 -12.7656 -12.6405 -12.6179 -12.5680 -12.1360 -12.1323
   -12.0841 -12.0651  -1.3741  -1.2971  -0.5363  -0.4886  -0.3770  -0.0553
     0.0431   0.3887   0.3904   0.7121   0.7366   0.8281   1.1790   1.2846
     1.3353   1.4466   1.4669   1.5763   1.6273   1.7288   1.8361   1.8915
     1.9847   2.3039   2.6483   2.7575   2.8447   3.0270   3.1892   3.2054

          k = 0.3347 0.2563 0.0000 ( 12677 PWs)   bands (ev):

   -60.3870 -60.3848 -60.3810 -60.3790 -34.4266 -34.4241 -34.4200 -34.4156
   -34.3340 -34.3082 -34.2926 -34.2850 -34.2346 -34.2295 -34.2131 -34.2016
   -13.3538 -13.2306 -12.7399 -12.6387 -12.6040 -12.5546 -12.1414 -12.1170
   -12.0530 -12.0256  -1.3751  -1.2979  -0.5869  -0.5378  -0.4728  -0.1833
    -0.1118  -0.0029   0.1121   0.3188   0.4141   0.4991   0.9304   0.9872
     1.0040   1.1120   1.2494   1.3369   1.4309   1.8298   2.1032   2.3123
     2.5026   2.5707   2.8787   3.1000   3.1202   3.2695   3.3336   3.3485

     highest occupied level (ev):     3.3485

!    total energy              =    -921.98504617 Ry
     Harris-Foulkes estimate   =    -921.98504617 Ry
     estimated scf accuracy    <          3.3E-11 Ry

     The total energy is the sum of the following terms:

     one-electron contribution =    -619.64898776 Ry
     hartree contribution      =     347.41730907 Ry
     xc contribution           =    -174.05683118 Ry
     ewald contribution        =    -475.69653630 Ry

     convergence has been achieved in  28 iterations

     Forces acting on atoms (cartesian axes, Ry/au):

     atom    1 type  1   force =    -0.00000000    0.00012613   -0.00002289
     atom    2 type  1   force =     0.00000000   -0.00012613    0.00002289
     atom    3 type  1   force =     0.00000000   -0.00012613   -0.00002289
     atom    4 type  1   force =    -0.00000000    0.00012613    0.00002289
     atom    5 type  2   force =     0.00000000    0.00000482   -0.00003434
     atom    6 type  2   force =     0.00000000   -0.00000482    0.00003434
     atom    7 type  2   force =     0.00000000   -0.00000482   -0.00003434
     atom    8 type  2   force =     0.00000000    0.00000482    0.00003434
     atom    9 type  2   force =     0.00000000   -0.00012644   -0.00000840
     atom   10 type  2   force =    -0.00000000    0.00012644    0.00000840
     atom   11 type  2   force =    -0.00000000    0.00012644   -0.00000840
     atom   12 type  2   force =     0.00000000    0.00001973    0.00000000
     atom   13 type  2   force =    -0.00000000   -0.00001973   -0.00000000
     atom   14 type  2   force =     0.00000000   -0.00012644    0.00000840

     Total force =     0.000368     Total SCF correction =     0.000009


     Computing stress (Cartesian axis) and pressure

          total   stress  (Ry/bohr**3)                   (kbar)     P=   -8.36
  -0.00004005   0.00000000   0.00000000         -5.89      0.00      0.00
   0.00000000  -0.00009668   0.00000000          0.00    -14.22      0.00
   0.00000000   0.00000000  -0.00003367          0.00      0.00     -4.95


     Writing output data file v2o5.save/

     init_run     :      3.07s CPU      3.21s WALL (       2 calls)
     electrons    :     89.14s CPU     90.89s WALL (       2 calls)
     forces       :      1.89s CPU      1.90s WALL (       2 calls)
     stress       :      3.24s CPU      3.25s WALL (       2 calls)

     Called by init_run:
     wfcinit      :      1.40s CPU      1.45s WALL (       2 calls)
     potinit      :      0.18s CPU      0.19s WALL (       2 calls)
     hinit0       :      1.43s CPU      1.49s WALL (       2 calls)

     Called by electrons:
     c_bands      :     84.70s CPU     86.29s WALL (      48 calls)
     sum_band     :      3.73s CPU      3.81s WALL (      48 calls)
     v_of_rho     :      0.51s CPU      0.57s WALL (      49 calls)
     mix_rho      :      0.18s CPU      0.20s WALL (      48 calls)

     Called by c_bands:
     init_us_2    :      0.59s CPU      0.69s WALL (     408 calls)
     cegterg      :     82.06s CPU     83.52s WALL (     192 calls)

     Called by sum_band:

     Called by *egterg:
     h_psi        :     42.04s CPU     42.76s WALL (     893 calls)
     g_psi        :      0.14s CPU      0.14s WALL (     693 calls)
     cdiaghg      :     14.05s CPU     14.36s WALL (     881 calls)

     Called by h_psi:
     h_psi:pot    :     41.85s CPU     42.47s WALL (     893 calls)
     h_psi:calbec :     14.09s CPU     14.25s WALL (     893 calls)
     vloc_psi     :     17.83s CPU     18.26s WALL (     893 calls)
     add_vuspsi   :      9.92s CPU      9.96s WALL (     893 calls)

     General routines
     calbec       :     15.19s CPU     15.36s WALL (     933 calls)
     fft          :      0.42s CPU      0.47s WALL (     539 calls)
     ffts         :      0.04s CPU      0.04s WALL (      48 calls)
     fftw         :     19.23s CPU     19.68s WALL (   72420 calls)

     Parallel routines
     fft_scatt_xy :      1.38s CPU      1.41s WALL (   73007 calls)
     fft_scatt_yz :      9.26s CPU      9.52s WALL (   73007 calls)

     PWSCF        :   1m37.75s CPU   1m39.90s WALL


   This run was terminated on:  15: 2:40  27Oct2024            

=------------------------------------------------------------------------------=
   JOB DONE.
=------------------------------------------------------------------------------=
