
     Program PWSCF v.6.5 starts on 13Nov2021 at 12:16: 8 

     This program is part of the open-source Quantum ESPRESSO suite
     for quantum simulation of materials; please cite
         "P. Giannozzi et al., J. Phys.:Condens. Matter 21 395502 (2009);
         "P. Giannozzi et al., J. Phys.:Condens. Matter 29 465901 (2017);
          URL http://www.quantum-espresso.org", 
     in publications or presentations arising from this work. More details at
     http://www.quantum-espresso.org/quote

     Parallel version (MPI & OpenMP), running on      20 processor cores
     Number of MPI processes:                20
     Threads/MPI process:                     1

     MPI processes distributed on     1 nodes
     R & G space division:  proc/nbgrp/npool/nimage =      20
     Reading input from v2o5.rlx.in

     Current dimensions of program PWSCF are:
     Max number of different atomic species (ntypx) = 10
     Max number of k-points (npk) =  40000
     Max angular momentum in pseudopotentials (lmaxx) =  3
               file V.pbe-spnl-kjpaw_psl.1.0.0.UPF: wavefunction(s)  3P 3D renormalized
               file O.pbe-n-kjpaw_psl.1.0.0.UPF: wavefunction(s)  2S 2P renormalized

     Subspace diagonalization in iterative solution of the eigenvalue problem:
     a serial algorithm will be used

     Message from routine setup:
     using ibrav=0 with symmetry is DISCOURAGED, use correct ibrav instead
 
     Parallelization info
     --------------------
     sticks:   dense  smooth     PW     G-vecs:    dense   smooth      PW
     Min         151      60     16                17867     4524     648
     Max         152      61     17                17875     4529     659
     Sum        3025    1219    329               357461    90555   13039
 


     bravais-lattice index     =            0
     lattice parameter (alat)  =       6.7498  a.u.
     unit-cell volume          =    1277.4049 (a.u.)^3
     number of atoms/cell      =           14
     number of atomic types    =            2
     number of electrons       =       112.00
     number of Kohn-Sham states=           67
     kinetic-energy cutoff     =      65.0000  Ry
     charge density cutoff     =     650.0000  Ry
     convergence threshold     =      1.0E-12
     mixing beta               =       0.2000
     number of iterations used =            8  local-TF  mixing
     Exchange-correlation= SLA PW PBX PBC
                           (   1   4   3   4   0   0   0)
     nstep                     =          550


     celldm(1)=   6.749792  celldm(2)=   0.000000  celldm(3)=   0.000000
     celldm(4)=   0.000000  celldm(5)=   0.000000  celldm(6)=   0.000000

     crystal axes: (cart. coord. in units of alat)
               a(1) = (   1.000000   0.000000   0.000000 )  
               a(2) = (   0.000000   1.282028   0.000000 )  
               a(3) = (   0.000000   0.000000   3.240110 )  

     reciprocal axes: (cart. coord. in units 2 pi/alat)
               b(1) = (  1.000000  0.000000  0.000000 )  
               b(2) = (  0.000000  0.780014  0.000000 )  
               b(3) = (  0.000000  0.000000  0.308631 )  


     PseudoPot. # 1 for V  read from file:
     ~/pseudos/V.pbe-spnl-kjpaw_psl.1.0.0.UPF
     MD5 check sum: Not computed, couldn't open file
     Pseudo is Projector augmented-wave + core cor, Zval = 13.0
     Generated using "atomic" code by A. Dal Corso v.6.3
     Shape of augmentation charge: PSQ
     Using radial grid of 1181 points,  6 beta functions with: 
                l(1) =   0
                l(2) =   0
                l(3) =   1
                l(4) =   1
                l(5) =   2
                l(6) =   2
     Q(r) pseudized with 0 coefficients 


     PseudoPot. # 2 for O  read from file:
     ~/pseudos/O.pbe-n-kjpaw_psl.1.0.0.UPF
     MD5 check sum: Not computed, couldn't open file
     Pseudo is Projector augmented-wave + core cor, Zval =  6.0
     Generated using "atomic" code by A. Dal Corso v.6.3
     Shape of augmentation charge: PSQ
     Using radial grid of 1095 points,  4 beta functions with: 
                l(1) =   0
                l(2) =   0
                l(3) =   1
                l(4) =   1
     Q(r) pseudized with 0 coefficients 


     atomic species   valence    mass     pseudopotential
        V             13.00    50.94150     V ( 1.00)
        O              6.00    15.99940     O ( 1.00)

      8 Sym. Ops., with inversion, found ( 4 have fractional translation)



   Cartesian axes

     site n.     atom                  positions (alat units)
         1           V   tau(   1) = (   0.0000000   0.4979375   2.1007829  )
         2           V   tau(   2) = (   0.5000000   0.7840909   2.7593826  )
         3           V   tau(   3) = (   0.5000000   0.7840909   0.4807277  )
         4           V   tau(   4) = (   0.0000000   0.4979375   1.1393274  )
         5           O   tau(   5) = (   0.5000000   0.6308552   2.2079513  )
         6           O   tau(   6) = (   0.0000000   0.6511732   2.6522141  )
         7           O   tau(   7) = (   0.0000000   0.6511732   0.5878962  )
         8           O   tau(   8) = (   0.5000000   0.6308552   1.0321590  )
         9           O   tau(   9) = (   0.0000000   0.0528745   1.1528152  )
        10           O   tau(  10) = (   0.5000000   1.2291540   0.4672400  )
        11           O   tau(  11) = (   0.5000000   1.2291540   2.7728704  )
        12           O   tau(  12) = (   0.5000000   0.6434095   0.0000000  )
        13           O   tau(  13) = (   0.0000000   0.6386190   1.6200552  )
        14           O   tau(  14) = (   0.0000000   0.0528745   2.0872951  )

     number of k points=     4  Gaussian smearing, width (Ry)=  0.0200
                       cart. coord. in units 2pi/alat
        k(    1) = (   0.0000000   0.0000000   0.0000000), wk =   0.2222222
        k(    2) = (   0.0000000   0.2600046   0.0000000), wk =   0.4444444
        k(    3) = (   0.3333333   0.0000000   0.0000000), wk =   0.4444444
        k(    4) = (   0.3333333   0.2600046   0.0000000), wk =   0.8888889

     Dense  grid:   357461 G-vectors     FFT dimensions: (  60,  72, 180)

     Smooth grid:    90555 G-vectors     FFT dimensions: (  36,  45, 120)

     Estimated max dynamical RAM per process >      85.34 MB

     Estimated total dynamical RAM >       1.67 GB

     Check: negative core charge=   -0.000001

     Initial potential from superposition of free atoms

     starting charge  111.99635, renormalised to  112.00000
     Starting wfcs are   80 randomized atomic wfcs
     Checking if some PAW data can be deallocated... 

     total cpu time spent up to now is        3.1 secs

     Self-consistent Calculation

     iteration #  1     ecut=    65.00 Ry     beta= 0.20
     Davidson diagonalization with overlap
     ethr =  1.00E-02,  avg # of iterations =  2.0

     total cpu time spent up to now is        4.1 secs

     total energy              =   -1273.75136418 Ry
     Harris-Foulkes estimate   =   -1274.93925122 Ry
     estimated scf accuracy    <       8.54284775 Ry

     iteration #  2     ecut=    65.00 Ry     beta= 0.20
     Davidson diagonalization with overlap
     ethr =  7.63E-03,  avg # of iterations =  1.0

     total cpu time spent up to now is        5.0 secs

     total energy              =   -1271.96633711 Ry
     Harris-Foulkes estimate   =   -1274.02803470 Ry
     estimated scf accuracy    <       4.67732073 Ry

     iteration #  3     ecut=    65.00 Ry     beta= 0.20
     Davidson diagonalization with overlap
     ethr =  4.18E-03,  avg # of iterations =  5.0

     total cpu time spent up to now is        6.5 secs

     total energy              =   -1273.36242228 Ry
     Harris-Foulkes estimate   =   -1274.60776737 Ry
     estimated scf accuracy    <      12.90856270 Ry

     iteration #  4     ecut=    65.00 Ry     beta= 0.20
     Davidson diagonalization with overlap
     ethr =  4.18E-03,  avg # of iterations =  1.0

     total cpu time spent up to now is        7.4 secs

     total energy              =   -1273.16215842 Ry
     Harris-Foulkes estimate   =   -1273.67310945 Ry
     estimated scf accuracy    <       3.37566561 Ry

     iteration #  5     ecut=    65.00 Ry     beta= 0.20
     Davidson diagonalization with overlap
     ethr =  3.01E-03,  avg # of iterations =  3.5

     total cpu time spent up to now is        8.5 secs

     total energy              =   -1273.55692345 Ry
     Harris-Foulkes estimate   =   -1273.56943244 Ry
     estimated scf accuracy    <       0.13234518 Ry

     iteration #  6     ecut=    65.00 Ry     beta= 0.20
     Davidson diagonalization with overlap
     ethr =  1.18E-04,  avg # of iterations =  5.2

     negative rho (up, down):  1.874E-04 0.000E+00

     total cpu time spent up to now is       10.3 secs

     total energy              =   -1273.57209128 Ry
     Harris-Foulkes estimate   =   -1273.81689884 Ry
     estimated scf accuracy    <       1.01162841 Ry

     iteration #  7     ecut=    65.00 Ry     beta= 0.20
     Davidson diagonalization with overlap
     ethr =  1.18E-04,  avg # of iterations =  5.2

     negative rho (up, down):  2.686E-04 0.000E+00

     total cpu time spent up to now is       11.8 secs

     total energy              =   -1273.66224048 Ry
     Harris-Foulkes estimate   =   -1273.66956656 Ry
     estimated scf accuracy    <       0.02582718 Ry

     iteration #  8     ecut=    65.00 Ry     beta= 0.20
     Davidson diagonalization with overlap
     ethr =  2.31E-05,  avg # of iterations =  5.0

     negative rho (up, down):  4.697E-04 0.000E+00

     total cpu time spent up to now is       13.3 secs

     total energy              =   -1273.63935393 Ry
     Harris-Foulkes estimate   =   -1273.69538626 Ry
     estimated scf accuracy    <       0.24335854 Ry

     iteration #  9     ecut=    65.00 Ry     beta= 0.20
     Davidson diagonalization with overlap
     ethr =  2.31E-05,  avg # of iterations =  4.2

     negative rho (up, down):  4.155E-04 0.000E+00

     total cpu time spent up to now is       15.2 secs

     total energy              =   -1273.67101001 Ry
     Harris-Foulkes estimate   =   -1273.67088547 Ry
     estimated scf accuracy    <       0.00827208 Ry

     iteration # 10     ecut=    65.00 Ry     beta= 0.20
     Davidson diagonalization with overlap
     ethr =  7.39E-06,  avg # of iterations =  1.5

     negative rho (up, down):  2.633E-04 0.000E+00

     total cpu time spent up to now is       16.2 secs

     total energy              =   -1273.67139714 Ry
     Harris-Foulkes estimate   =   -1273.67116844 Ry
     estimated scf accuracy    <       0.00426094 Ry

     iteration # 11     ecut=    65.00 Ry     beta= 0.20
     Davidson diagonalization with overlap
     ethr =  3.80E-06,  avg # of iterations =  4.0

     negative rho (up, down):  2.731E-04 0.000E+00

     total cpu time spent up to now is       17.5 secs

     total energy              =   -1273.67248853 Ry
     Harris-Foulkes estimate   =   -1273.67235243 Ry
     estimated scf accuracy    <       0.00059818 Ry

     iteration # 12     ecut=    65.00 Ry     beta= 0.20
     Davidson diagonalization with overlap
     ethr =  5.34E-07,  avg # of iterations =  4.2

     negative rho (up, down):  2.750E-04 0.000E+00

     total cpu time spent up to now is       18.7 secs

     total energy              =   -1273.67283513 Ry
     Harris-Foulkes estimate   =   -1273.67257064 Ry
     estimated scf accuracy    <       0.00033942 Ry

     iteration # 13     ecut=    65.00 Ry     beta= 0.20
     Davidson diagonalization with overlap
     ethr =  3.03E-07,  avg # of iterations =  4.5

     negative rho (up, down):  2.756E-04 0.000E+00

     total cpu time spent up to now is       20.0 secs

     total energy              =   -1273.67294891 Ry
     Harris-Foulkes estimate   =   -1273.67290332 Ry
     estimated scf accuracy    <       0.00026352 Ry

     iteration # 14     ecut=    65.00 Ry     beta= 0.20
     Davidson diagonalization with overlap
     ethr =  2.35E-07,  avg # of iterations =  1.0

     negative rho (up, down):  2.759E-04 0.000E+00

     total cpu time spent up to now is       20.9 secs

     total energy              =   -1273.67301685 Ry
     Harris-Foulkes estimate   =   -1273.67296604 Ry
     estimated scf accuracy    <       0.00005936 Ry

     iteration # 15     ecut=    65.00 Ry     beta= 0.20
     Davidson diagonalization with overlap
     ethr =  5.30E-08,  avg # of iterations =  4.5

     negative rho (up, down):  3.055E-04 0.000E+00

     total cpu time spent up to now is       22.3 secs

     total energy              =   -1273.67304304 Ry
     Harris-Foulkes estimate   =   -1273.67305633 Ry
     estimated scf accuracy    <       0.00012401 Ry

     iteration # 16     ecut=    65.00 Ry     beta= 0.20
     Davidson diagonalization with overlap
     ethr =  5.30E-08,  avg # of iterations =  4.8

     negative rho (up, down):  3.253E-04 0.000E+00

     total cpu time spent up to now is       23.5 secs

     total energy              =   -1273.67308058 Ry
     Harris-Foulkes estimate   =   -1273.67305837 Ry
     estimated scf accuracy    <       0.00001247 Ry

     iteration # 17     ecut=    65.00 Ry     beta= 0.20
     Davidson diagonalization with overlap
     ethr =  1.11E-08,  avg # of iterations =  5.0

     negative rho (up, down):  3.206E-04 0.000E+00

     total cpu time spent up to now is       25.1 secs

     total energy              =   -1273.67311311 Ry
     Harris-Foulkes estimate   =   -1273.67308750 Ry
     estimated scf accuracy    <       0.00000611 Ry

     iteration # 18     ecut=    65.00 Ry     beta= 0.20
     Davidson diagonalization with overlap
     ethr =  5.45E-09,  avg # of iterations =  3.2

     negative rho (up, down):  3.247E-04 0.000E+00

     total cpu time spent up to now is       26.2 secs

     total energy              =   -1273.67312844 Ry
     Harris-Foulkes estimate   =   -1273.67311358 Ry
     estimated scf accuracy    <       0.00000190 Ry

     iteration # 19     ecut=    65.00 Ry     beta= 0.20
     Davidson diagonalization with overlap
     ethr =  1.70E-09,  avg # of iterations =  3.0

     negative rho (up, down):  3.288E-04 0.000E+00

     total cpu time spent up to now is       27.2 secs

     total energy              =   -1273.67313621 Ry
     Harris-Foulkes estimate   =   -1273.67312871 Ry
     estimated scf accuracy    <       0.00000550 Ry

     iteration # 20     ecut=    65.00 Ry     beta= 0.20
     Davidson diagonalization with overlap
     ethr =  1.70E-09,  avg # of iterations =  3.2

     negative rho (up, down):  3.315E-04 0.000E+00

     total cpu time spent up to now is       28.3 secs

     total energy              =   -1273.67314261 Ry
     Harris-Foulkes estimate   =   -1273.67313660 Ry
     estimated scf accuracy    <       0.00000062 Ry

     iteration # 21     ecut=    65.00 Ry     beta= 0.20
     Davidson diagonalization with overlap
     ethr =  5.55E-10,  avg # of iterations =  5.0

     negative rho (up, down):  3.338E-04 0.000E+00

     total cpu time spent up to now is       29.9 secs

     total energy              =   -1273.67314686 Ry
     Harris-Foulkes estimate   =   -1273.67314291 Ry
     estimated scf accuracy    <       0.00000012 Ry

     iteration # 22     ecut=    65.00 Ry     beta= 0.20
     Davidson diagonalization with overlap
     ethr =  1.06E-10,  avg # of iterations =  4.2

     negative rho (up, down):  3.350E-04 0.000E+00

     total cpu time spent up to now is       31.0 secs

     total energy              =   -1273.67314950 Ry
     Harris-Foulkes estimate   =   -1273.67314689 Ry
     estimated scf accuracy    <       0.00000003 Ry

     iteration # 23     ecut=    65.00 Ry     beta= 0.20
     Davidson diagonalization with overlap
     ethr =  2.79E-11,  avg # of iterations =  5.0

     negative rho (up, down):  3.363E-04 0.000E+00

     total cpu time spent up to now is       32.6 secs

     total energy              =   -1273.67315118 Ry
     Harris-Foulkes estimate   =   -1273.67314952 Ry
     estimated scf accuracy    <       0.00000007 Ry

     iteration # 24     ecut=    65.00 Ry     beta= 0.20
     Davidson diagonalization with overlap
     ethr =  2.79E-11,  avg # of iterations =  5.2

     negative rho (up, down):  3.377E-04 0.000E+00

     total cpu time spent up to now is       34.1 secs

     total energy              =   -1273.67315226 Ry
     Harris-Foulkes estimate   =   -1273.67315121 Ry
     estimated scf accuracy    <       0.00000011 Ry

     iteration # 25     ecut=    65.00 Ry     beta= 0.20
     Davidson diagonalization with overlap
     ethr =  2.79E-11,  avg # of iterations =  1.0

     negative rho (up, down):  3.387E-04 0.000E+00

     total cpu time spent up to now is       35.0 secs

     total energy              =   -1273.67315293 Ry
     Harris-Foulkes estimate   =   -1273.67315226 Ry
     estimated scf accuracy    <       0.00000006 Ry

     iteration # 26     ecut=    65.00 Ry     beta= 0.20
     Davidson diagonalization with overlap
     ethr =  2.79E-11,  avg # of iterations =  4.8

     negative rho (up, down):  3.394E-04 0.000E+00

     total cpu time spent up to now is       36.2 secs

     total energy              =   -1273.67315337 Ry
     Harris-Foulkes estimate   =   -1273.67315294 Ry
     estimated scf accuracy    <          5.7E-09 Ry

     iteration # 27     ecut=    65.00 Ry     beta= 0.20
     Davidson diagonalization with overlap
     ethr =  5.06E-12,  avg # of iterations =  5.0

     negative rho (up, down):  3.401E-04 0.000E+00

     total cpu time spent up to now is       37.8 secs

     total energy              =   -1273.67315366 Ry
     Harris-Foulkes estimate   =   -1273.67315338 Ry
     estimated scf accuracy    <       0.00000001 Ry

     iteration # 28     ecut=    65.00 Ry     beta= 0.20
     Davidson diagonalization with overlap
     ethr =  5.06E-12,  avg # of iterations =  1.0

     negative rho (up, down):  3.408E-04 0.000E+00

     total cpu time spent up to now is       38.7 secs

     total energy              =   -1273.67315383 Ry
     Harris-Foulkes estimate   =   -1273.67315366 Ry
     estimated scf accuracy    <          4.5E-09 Ry

     iteration # 29     ecut=    65.00 Ry     beta= 0.20
     Davidson diagonalization with overlap
     ethr =  3.98E-12,  avg # of iterations =  4.5

     negative rho (up, down):  3.412E-04 0.000E+00

     total cpu time spent up to now is       40.1 secs

     total energy              =   -1273.67315395 Ry
     Harris-Foulkes estimate   =   -1273.67315383 Ry
     estimated scf accuracy    <          2.3E-09 Ry

     iteration # 30     ecut=    65.00 Ry     beta= 0.20
     Davidson diagonalization with overlap
     ethr =  2.01E-12,  avg # of iterations =  1.5

     negative rho (up, down):  3.416E-04 0.000E+00

     total cpu time spent up to now is       41.6 secs

     total energy              =   -1273.67315401 Ry
     Harris-Foulkes estimate   =   -1273.67315395 Ry
     estimated scf accuracy    <          2.8E-10 Ry

     iteration # 31     ecut=    65.00 Ry     beta= 0.20
     Davidson diagonalization with overlap
     ethr =  2.54E-13,  avg # of iterations =  5.0

     negative rho (up, down):  3.420E-04 0.000E+00

     total cpu time spent up to now is       43.8 secs

     total energy              =   -1273.67315406 Ry
     Harris-Foulkes estimate   =   -1273.67315401 Ry
     estimated scf accuracy    <          2.8E-09 Ry

     iteration # 32     ecut=    65.00 Ry     beta= 0.20
     Davidson diagonalization with overlap
     ethr =  2.54E-13,  avg # of iterations =  2.5

     negative rho (up, down):  3.422E-04 0.000E+00

     total cpu time spent up to now is       44.8 secs

     total energy              =   -1273.67315409 Ry
     Harris-Foulkes estimate   =   -1273.67315406 Ry
     estimated scf accuracy    <          1.2E-09 Ry

     iteration # 33     ecut=    65.00 Ry     beta= 0.20
     Davidson diagonalization with overlap
     ethr =  2.54E-13,  avg # of iterations =  4.5

     negative rho (up, down):  3.424E-04 0.000E+00

     total cpu time spent up to now is       46.0 secs

     total energy              =   -1273.67315411 Ry
     Harris-Foulkes estimate   =   -1273.67315409 Ry
     estimated scf accuracy    <          8.3E-10 Ry

     iteration # 34     ecut=    65.00 Ry     beta= 0.20
     Davidson diagonalization with overlap
     ethr =  2.54E-13,  avg # of iterations =  7.0

     negative rho (up, down):  3.425E-04 0.000E+00

     total cpu time spent up to now is       47.5 secs

     total energy              =   -1273.67315413 Ry
     Harris-Foulkes estimate   =   -1273.67315411 Ry
     estimated scf accuracy    <          4.6E-11 Ry

     iteration # 35     ecut=    65.00 Ry     beta= 0.20
     Davidson diagonalization with overlap
     ethr =  1.00E-13,  avg # of iterations =  3.8

     negative rho (up, down):  3.427E-04 0.000E+00

     total cpu time spent up to now is       48.6 secs

     total energy              =   -1273.67315414 Ry
     Harris-Foulkes estimate   =   -1273.67315413 Ry
     estimated scf accuracy    <          2.1E-11 Ry

     iteration # 36     ecut=    65.00 Ry     beta= 0.20
     Davidson diagonalization with overlap
     ethr =  1.00E-13,  avg # of iterations =  2.5

     negative rho (up, down):  3.428E-04 0.000E+00

     total cpu time spent up to now is       49.6 secs

     total energy              =   -1273.67315414 Ry
     Harris-Foulkes estimate   =   -1273.67315414 Ry
     estimated scf accuracy    <          3.2E-11 Ry

     iteration # 37     ecut=    65.00 Ry     beta= 0.20
     Davidson diagonalization with overlap
     ethr =  1.00E-13,  avg # of iterations =  1.0

     negative rho (up, down):  3.428E-04 0.000E+00

     total cpu time spent up to now is       50.6 secs

     total energy              =   -1273.67315415 Ry
     Harris-Foulkes estimate   =   -1273.67315414 Ry
     estimated scf accuracy    <          2.9E-11 Ry

     iteration # 38     ecut=    65.00 Ry     beta= 0.20
     Davidson diagonalization with overlap
     ethr =  1.00E-13,  avg # of iterations =  1.0

     negative rho (up, down):  3.429E-04 0.000E+00

     total cpu time spent up to now is       51.5 secs

     total energy              =   -1273.67315415 Ry
     Harris-Foulkes estimate   =   -1273.67315415 Ry
     estimated scf accuracy    <          1.5E-11 Ry

     iteration # 39     ecut=    65.00 Ry     beta= 0.20
     Davidson diagonalization with overlap
     ethr =  1.00E-13,  avg # of iterations =  1.0

     negative rho (up, down):  3.429E-04 0.000E+00

     total cpu time spent up to now is       52.4 secs

     total energy              =   -1273.67315415 Ry
     Harris-Foulkes estimate   =   -1273.67315415 Ry
     estimated scf accuracy    <          1.3E-11 Ry

     iteration # 40     ecut=    65.00 Ry     beta= 0.20
     Davidson diagonalization with overlap
     ethr =  1.00E-13,  avg # of iterations =  1.0

     negative rho (up, down):  3.430E-04 0.000E+00

     total cpu time spent up to now is       53.3 secs

     total energy              =   -1273.67315415 Ry
     Harris-Foulkes estimate   =   -1273.67315415 Ry
     estimated scf accuracy    <          1.5E-11 Ry

     iteration # 41     ecut=    65.00 Ry     beta= 0.20
     Davidson diagonalization with overlap
     ethr =  1.00E-13,  avg # of iterations =  1.0

     negative rho (up, down):  3.430E-04 0.000E+00

     total cpu time spent up to now is       54.2 secs

     total energy              =   -1273.67315415 Ry
     Harris-Foulkes estimate   =   -1273.67315415 Ry
     estimated scf accuracy    <          1.0E-11 Ry

     iteration # 42     ecut=    65.00 Ry     beta= 0.20
     Davidson diagonalization with overlap
     ethr =  1.00E-13,  avg # of iterations =  1.0

     negative rho (up, down):  3.431E-04 0.000E+00

     total cpu time spent up to now is       55.2 secs

     total energy              =   -1273.67315415 Ry
     Harris-Foulkes estimate   =   -1273.67315415 Ry
     estimated scf accuracy    <          1.5E-12 Ry

     iteration # 43     ecut=    65.00 Ry     beta= 0.20
     Davidson diagonalization with overlap
     ethr =  1.00E-13,  avg # of iterations =  1.0

     negative rho (up, down):  3.432E-04 0.000E+00

     total cpu time spent up to now is       56.1 secs

     End of self-consistent calculation

          k = 0.0000 0.0000 0.0000 ( 11299 PWs)   bands (ev):

   -60.4004 -60.3984 -60.3895 -60.3875 -34.4041 -34.4017 -34.3941 -34.3887
   -34.3196 -34.2686 -34.2425 -34.2188 -34.2164 -34.1934 -34.1839 -34.1814
   -13.9526 -13.8317 -12.8774 -12.7657 -12.6825 -12.6293 -12.2430 -12.2421
   -12.0997 -12.0853  -0.7789  -0.7668  -0.6835  -0.5910  -0.4243  -0.0011
     0.6580   0.7382   0.9279   0.9840   1.2226   1.2706   1.4518   1.4672
     1.4759   1.5924   1.7042   1.7474   1.8199   1.9061   1.9929   2.0559
     2.2021   2.4775   2.6315   2.6596   2.7354   2.9363   2.9380   3.0279
     5.4045   5.5747   6.8072   6.9170   6.9443   7.0955   7.3037   7.5869
     7.7014   8.0804   8.0890

          k = 0.0000 0.2600 0.0000 ( 11330 PWs)   bands (ev):

   -60.4003 -60.3984 -60.3895 -60.3876 -34.4054 -34.4028 -34.3964 -34.3911
   -34.3194 -34.2682 -34.2424 -34.2186 -34.2163 -34.1934 -34.1838 -34.1816
   -13.8959 -13.7841 -12.8272 -12.7471 -12.6790 -12.6115 -12.2580 -12.2335
   -12.0862 -12.0578  -0.8127  -0.8002  -0.7109  -0.6273  -0.5604  -0.2352
    -0.0368   0.1710   0.2274   0.3394   0.8652   0.9948   1.0597   1.4285
     1.4931   1.6932   1.8490   1.9023   2.0695   2.1304   2.2545   2.3819
     2.6291   2.6349   2.6352   2.7893   2.8264   3.0915   3.1372   3.2713
     5.4740   5.6408   6.8486   6.9343   6.9903   7.1541   7.2991   7.6251
     7.7530   8.0969   8.1041

          k = 0.3333 0.0000 0.0000 ( 11263 PWs)   bands (ev):

   -60.3961 -60.3942 -60.3906 -60.3887 -34.3983 -34.3961 -34.3920 -34.3882
   -34.3170 -34.2922 -34.2783 -34.2703 -34.2227 -34.2176 -34.2025 -34.1919
   -13.3931 -13.2573 -12.7819 -12.6432 -12.6278 -12.5867 -12.1867 -12.1816
   -12.1468 -12.1141  -1.2908  -1.2202  -0.4460  -0.4372  -0.3168   0.0083
     0.1143   0.4833   0.4834   0.7782   0.8127   0.8789   1.2202   1.3254
     1.3679   1.5197   1.5495   1.6488   1.6592   1.8071   1.8455   1.9252
     1.9761   2.3715   2.6723   2.7462   2.8678   3.0387   3.1972   3.2196
     5.7641   5.9726   6.6077   6.6364   6.8567   7.1131   7.1842   7.2448
     7.5046   7.5366   7.6652

          k = 0.3333 0.2600 0.0000 ( 11303 PWs)   bands (ev):

   -60.3961 -60.3942 -60.3906 -60.3887 -34.3997 -34.3974 -34.3940 -34.3901
   -34.3169 -34.2920 -34.2781 -34.2701 -34.2227 -34.2177 -34.2026 -34.1920
   -13.3436 -13.2214 -12.7487 -12.6408 -12.6123 -12.5710 -12.1864 -12.1659
   -12.1011 -12.0794  -1.2920  -1.2198  -0.5044  -0.4850  -0.4159  -0.1410
    -0.0649   0.0555   0.1398   0.3498   0.4274   0.5779   0.9691   0.9776
     1.0404   1.1102   1.2470   1.3408   1.4471   1.8716   2.1334   2.3217
     2.5548   2.5960   2.9436   3.1592   3.1743   3.3283   3.3629   3.3884
     5.7828   5.9656   6.6611   6.6831   7.0370   7.2263   7.2523   7.2877
     7.5368   7.5648   7.5872

     the Fermi energy is     4.4256 ev

!    total energy              =   -1273.67315415 Ry
     Harris-Foulkes estimate   =   -1273.67315415 Ry
     estimated scf accuracy    <          8.4E-13 Ry

     total all-electron energy =     -9100.527071 Ry

     The total energy is the sum of the following terms:

     one-electron contribution =    -609.03431386 Ry
     hartree contribution      =     345.96478621 Ry
     xc contribution           =    -154.80618165 Ry
     ewald contribution        =    -480.40967487 Ry
     one-center paw contrib.   =    -375.38776997 Ry
     smearing contrib. (-TS)   =      -0.00000001 Ry

     convergence has been achieved in  43 iterations

     negative rho (up, down):  3.432E-04 0.000E+00

     Forces acting on atoms (cartesian axes, Ry/au):

     atom    1 type  1   force =     0.00000000    0.00013309   -0.00004880
     atom    2 type  1   force =     0.00000000   -0.00013309    0.00004880
     atom    3 type  1   force =     0.00000000   -0.00013309   -0.00004880
     atom    4 type  1   force =     0.00000000    0.00013309    0.00004880
     atom    5 type  2   force =     0.00000000   -0.00000355    0.00002058
     atom    6 type  2   force =     0.00000000    0.00000355   -0.00002058
     atom    7 type  2   force =     0.00000000    0.00000355    0.00002058
     atom    8 type  2   force =     0.00000000   -0.00000355   -0.00002058
     atom    9 type  2   force =     0.00000000   -0.00012784   -0.00000218
     atom   10 type  2   force =     0.00000000    0.00012784    0.00000218
     atom   11 type  2   force =     0.00000000    0.00012784   -0.00000218
     atom   12 type  2   force =     0.00000000    0.00003802    0.00000000
     atom   13 type  2   force =     0.00000000   -0.00003802    0.00000000
     atom   14 type  2   force =     0.00000000   -0.00012784    0.00000218

     Total force =     0.000388     Total SCF correction =     0.000002


     Computing stress (Cartesian axis) and pressure


     negative rho (up, down):  3.432E-04 0.000E+00
          total   stress  (Ry/bohr**3)                   (kbar)     P=        0.39
   0.00000207   0.00000000   0.00000000            0.30        0.00        0.00
   0.00000000   0.00000357   0.00000000            0.00        0.53        0.00
   0.00000000   0.00000000   0.00000237            0.00        0.00        0.35


     BFGS Geometry Optimization

     number of scf cycles    =   1
     number of bfgs steps    =   0

     enthalpy new            =   -1273.6731541521 Ry

     new trust radius        =       0.0006387950 bohr
     new conv_thr            =            1.0E-12 Ry

     new unit-cell volume =   1277.66090 a.u.^3 (   189.32981 Ang^3 )
     density =      3.19040 g/cm^3

CELL_PARAMETERS (angstrom)
   3.572021051   0.000000000   0.000000000
   0.000000000   4.579604478   0.000000000
   0.000000000   0.000000000  11.573827794

ATOMIC_POSITIONS (crystal)
V             0.0000000000        0.3884135558        0.6483654758
V             0.5000000019        0.6115864480        0.8516345299
V             0.5000000019        0.6115864480        0.1483654739
V             0.0000000000        0.3884135558        0.3516345280
O             0.5000000019        0.4920754316        0.6814442049
O             0.0000000000        0.5079245722        0.8185558008
O             0.0000000000        0.5079245722        0.1814442030
O             0.5000000019        0.4920754316        0.3185557989
O             0.0000000000        0.0412280741        0.3557949500
O             0.5000000019        0.9587719297        0.1442050519
O             0.5000000019        0.9587719297        0.8557949519
O             0.5000000019        0.5018727200        0.0000000000
O             0.0000000000        0.4981272837        0.5000000019
O             0.0000000000        0.0412280741        0.6442050538



     Writing output data file ./v2o5.save/
     NEW-OLD atomic charge density approx. for the potential

     Check: negative core charge=   -0.000001

     negative rho (up, down):  3.424E-04 0.000E+00
     extrapolated charge  112.02244, renormalised to  112.00000

     total cpu time spent up to now is       60.6 secs

     Self-consistent Calculation

     iteration #  1     ecut=    65.00 Ry     beta= 0.20
     Davidson diagonalization with overlap
     ethr =  1.00E-06,  avg # of iterations =  2.0

     negative rho (up, down):  3.420E-04 0.000E+00

     total cpu time spent up to now is       61.9 secs

     total energy              =   -1273.67311037 Ry
     Harris-Foulkes estimate   =   -1273.57348230 Ry
     estimated scf accuracy    <       0.00014230 Ry

     iteration #  2     ecut=    65.00 Ry     beta= 0.20
     Davidson diagonalization with overlap
     ethr =  1.27E-07,  avg # of iterations =  3.2

     negative rho (up, down):  3.427E-04 0.000E+00

     total cpu time spent up to now is       63.0 secs

     total energy              =   -1273.67315149 Ry
     Harris-Foulkes estimate   =   -1273.67315284 Ry
     estimated scf accuracy    <       0.00001161 Ry

     iteration #  3     ecut=    65.00 Ry     beta= 0.20
     Davidson diagonalization with overlap
     ethr =  1.04E-08,  avg # of iterations =  4.8

     negative rho (up, down):  3.435E-04 0.000E+00

     total cpu time spent up to now is       64.4 secs

     total energy              =   -1273.67315430 Ry
     Harris-Foulkes estimate   =   -1273.67315589 Ry
     estimated scf accuracy    <       0.00001215 Ry

     iteration #  4     ecut=    65.00 Ry     beta= 0.20
     Davidson diagonalization with overlap
     ethr =  1.04E-08,  avg # of iterations =  1.0

     negative rho (up, down):  3.444E-04 0.000E+00

     total cpu time spent up to now is       65.4 secs

     total energy              =   -1273.67315371 Ry
     Harris-Foulkes estimate   =   -1273.67315463 Ry
     estimated scf accuracy    <       0.00000440 Ry

     iteration #  5     ecut=    65.00 Ry     beta= 0.20
     Davidson diagonalization with overlap
     ethr =  3.93E-09,  avg # of iterations =  4.5

     negative rho (up, down):  3.443E-04 0.000E+00

     total cpu time spent up to now is       66.5 secs

     total energy              =   -1273.67315428 Ry
     Harris-Foulkes estimate   =   -1273.67315426 Ry
     estimated scf accuracy    <       0.00000013 Ry

     iteration #  6     ecut=    65.00 Ry     beta= 0.20
     Davidson diagonalization with overlap
     ethr =  1.20E-10,  avg # of iterations =  5.0

     negative rho (up, down):  3.442E-04 0.000E+00

     total cpu time spent up to now is       68.2 secs

     total energy              =   -1273.67315444 Ry
     Harris-Foulkes estimate   =   -1273.67315443 Ry
     estimated scf accuracy    <       0.00000025 Ry

     iteration #  7     ecut=    65.00 Ry     beta= 0.20
     Davidson diagonalization with overlap
     ethr =  1.20E-10,  avg # of iterations =  1.0

     negative rho (up, down):  3.434E-04 0.000E+00

     total cpu time spent up to now is       69.1 secs

     total energy              =   -1273.67315435 Ry
     Harris-Foulkes estimate   =   -1273.67315444 Ry
     estimated scf accuracy    <       0.00000032 Ry

     iteration #  8     ecut=    65.00 Ry     beta= 0.20
     Davidson diagonalization with overlap
     ethr =  1.20E-10,  avg # of iterations =  4.8

     negative rho (up, down):  3.436E-04 0.000E+00

     total cpu time spent up to now is       70.8 secs

     total energy              =   -1273.67315434 Ry
     Harris-Foulkes estimate   =   -1273.67315440 Ry
     estimated scf accuracy    <       0.00000059 Ry

     iteration #  9     ecut=    65.00 Ry     beta= 0.20
     Davidson diagonalization with overlap
     ethr =  1.20E-10,  avg # of iterations =  1.0

     negative rho (up, down):  3.440E-04 0.000E+00

     total cpu time spent up to now is       71.7 secs

     total energy              =   -1273.67315428 Ry
     Harris-Foulkes estimate   =   -1273.67315435 Ry
     estimated scf accuracy    <       0.00000028 Ry

     iteration # 10     ecut=    65.00 Ry     beta= 0.20
     Davidson diagonalization with overlap
     ethr =  1.20E-10,  avg # of iterations =  4.0

     negative rho (up, down):  3.440E-04 0.000E+00

     total cpu time spent up to now is       73.0 secs

     total energy              =   -1273.67315432 Ry
     Harris-Foulkes estimate   =   -1273.67315432 Ry
     estimated scf accuracy    <          9.9E-09 Ry

     iteration # 11     ecut=    65.00 Ry     beta= 0.20
     Davidson diagonalization with overlap
     ethr =  8.81E-12,  avg # of iterations =  3.8

     negative rho (up, down):  3.440E-04 0.000E+00

     total cpu time spent up to now is       74.1 secs

     total energy              =   -1273.67315433 Ry
     Harris-Foulkes estimate   =   -1273.67315433 Ry
     estimated scf accuracy    <          7.1E-09 Ry

     iteration # 12     ecut=    65.00 Ry     beta= 0.20
     Davidson diagonalization with overlap
     ethr =  6.37E-12,  avg # of iterations =  3.8

     negative rho (up, down):  3.443E-04 0.000E+00

     total cpu time spent up to now is       75.2 secs

     total energy              =   -1273.67315431 Ry
     Harris-Foulkes estimate   =   -1273.67315433 Ry
     estimated scf accuracy    <       0.00000002 Ry

     iteration # 13     ecut=    65.00 Ry     beta= 0.20
     Davidson diagonalization with overlap
     ethr =  6.37E-12,  avg # of iterations =  4.2

     negative rho (up, down):  3.442E-04 0.000E+00

     total cpu time spent up to now is       76.8 secs

     total energy              =   -1273.67315432 Ry
     Harris-Foulkes estimate   =   -1273.67315432 Ry
     estimated scf accuracy    <       0.00000005 Ry

     iteration # 14     ecut=    65.00 Ry     beta= 0.20
     Davidson diagonalization with overlap
     ethr =  6.37E-12,  avg # of iterations =  4.0

     negative rho (up, down):  3.443E-04 0.000E+00

     total cpu time spent up to now is       77.9 secs

     total energy              =   -1273.67315432 Ry
     Harris-Foulkes estimate   =   -1273.67315432 Ry
     estimated scf accuracy    <       0.00000003 Ry

     iteration # 15     ecut=    65.00 Ry     beta= 0.20
     Davidson diagonalization with overlap
     ethr =  6.37E-12,  avg # of iterations =  4.0

     negative rho (up, down):  3.443E-04 0.000E+00

     total cpu time spent up to now is       79.1 secs

     total energy              =   -1273.67315432 Ry
     Harris-Foulkes estimate   =   -1273.67315432 Ry
     estimated scf accuracy    <          8.6E-09 Ry

     iteration # 16     ecut=    65.00 Ry     beta= 0.20
     Davidson diagonalization with overlap
     ethr =  6.37E-12,  avg # of iterations =  1.0

     negative rho (up, down):  3.444E-04 0.000E+00

     total cpu time spent up to now is       80.1 secs

     total energy              =   -1273.67315432 Ry
     Harris-Foulkes estimate   =   -1273.67315432 Ry
     estimated scf accuracy    <          8.6E-09 Ry

     iteration # 17     ecut=    65.00 Ry     beta= 0.20
     Davidson diagonalization with overlap
     ethr =  6.37E-12,  avg # of iterations =  1.0

     negative rho (up, down):  3.444E-04 0.000E+00

     total cpu time spent up to now is       81.0 secs

     total energy              =   -1273.67315432 Ry
     Harris-Foulkes estimate   =   -1273.67315432 Ry
     estimated scf accuracy    <          1.1E-09 Ry

     iteration # 18     ecut=    65.00 Ry     beta= 0.20
     Davidson diagonalization with overlap
     ethr =  9.49E-13,  avg # of iterations =  5.0

     negative rho (up, down):  3.444E-04 0.000E+00

     total cpu time spent up to now is       82.6 secs

     total energy              =   -1273.67315432 Ry
     Harris-Foulkes estimate   =   -1273.67315432 Ry
     estimated scf accuracy    <          2.5E-09 Ry

     iteration # 19     ecut=    65.00 Ry     beta= 0.20
     Davidson diagonalization with overlap
     ethr =  9.49E-13,  avg # of iterations =  2.0

     negative rho (up, down):  3.444E-04 0.000E+00

     total cpu time spent up to now is       83.6 secs

     total energy              =   -1273.67315432 Ry
     Harris-Foulkes estimate   =   -1273.67315432 Ry
     estimated scf accuracy    <          2.9E-10 Ry

     iteration # 20     ecut=    65.00 Ry     beta= 0.20
     Davidson diagonalization with overlap
     ethr =  2.61E-13,  avg # of iterations =  4.5

     negative rho (up, down):  3.444E-04 0.000E+00

     total cpu time spent up to now is       85.1 secs

     total energy              =   -1273.67315432 Ry
     Harris-Foulkes estimate   =   -1273.67315432 Ry
     estimated scf accuracy    <          2.0E-11 Ry

     iteration # 21     ecut=    65.00 Ry     beta= 0.20
     Davidson diagonalization with overlap
     ethr =  1.00E-13,  avg # of iterations =  1.0

     negative rho (up, down):  3.444E-04 0.000E+00

     total cpu time spent up to now is       86.0 secs

     total energy              =   -1273.67315432 Ry
     Harris-Foulkes estimate   =   -1273.67315432 Ry
     estimated scf accuracy    <          6.5E-12 Ry

     iteration # 22     ecut=    65.00 Ry     beta= 0.20
     Davidson diagonalization with overlap
     ethr =  1.00E-13,  avg # of iterations =  2.5

     negative rho (up, down):  3.444E-04 0.000E+00

     total cpu time spent up to now is       87.0 secs

     total energy              =   -1273.67315432 Ry
     Harris-Foulkes estimate   =   -1273.67315432 Ry
     estimated scf accuracy    <          8.1E-11 Ry

     iteration # 23     ecut=    65.00 Ry     beta= 0.20
     Davidson diagonalization with overlap
     ethr =  1.00E-13,  avg # of iterations =  1.0

     negative rho (up, down):  3.444E-04 0.000E+00

     total cpu time spent up to now is       87.9 secs

     total energy              =   -1273.67315432 Ry
     Harris-Foulkes estimate   =   -1273.67315432 Ry
     estimated scf accuracy    <          4.1E-11 Ry

     iteration # 24     ecut=    65.00 Ry     beta= 0.20
     Davidson diagonalization with overlap
     ethr =  1.00E-13,  avg # of iterations =  1.2

     negative rho (up, down):  3.444E-04 0.000E+00

     total cpu time spent up to now is       88.8 secs

     total energy              =   -1273.67315432 Ry
     Harris-Foulkes estimate   =   -1273.67315432 Ry
     estimated scf accuracy    <          4.1E-12 Ry

     iteration # 25     ecut=    65.00 Ry     beta= 0.20
     Davidson diagonalization with overlap
     ethr =  1.00E-13,  avg # of iterations =  1.0

     negative rho (up, down):  3.444E-04 0.000E+00

     total cpu time spent up to now is       89.7 secs

     total energy              =   -1273.67315432 Ry
     Harris-Foulkes estimate   =   -1273.67315432 Ry
     estimated scf accuracy    <          1.6E-12 Ry

     iteration # 26     ecut=    65.00 Ry     beta= 0.20
     Davidson diagonalization with overlap
     ethr =  1.00E-13,  avg # of iterations =  1.0

     negative rho (up, down):  3.444E-04 0.000E+00

     total cpu time spent up to now is       90.8 secs

     total energy              =   -1273.67315432 Ry
     Harris-Foulkes estimate   =   -1273.67315432 Ry
     estimated scf accuracy    <          4.3E-12 Ry

     iteration # 27     ecut=    65.00 Ry     beta= 0.20
     Davidson diagonalization with overlap
     ethr =  1.00E-13,  avg # of iterations =  1.0

     negative rho (up, down):  3.444E-04 0.000E+00

     total cpu time spent up to now is       91.7 secs

     End of self-consistent calculation

          k = 0.0000 0.0000 0.0000 ( 11299 PWs)   bands (ev):

   -60.4033 -60.4013 -60.3924 -60.3905 -34.4062 -34.4038 -34.3962 -34.3909
   -34.3225 -34.2715 -34.2455 -34.2217 -34.2193 -34.1964 -34.1869 -34.1844
   -13.9544 -13.8336 -12.8796 -12.7678 -12.6848 -12.6318 -12.2447 -12.2437
   -12.1012 -12.0869  -0.7808  -0.7687  -0.6856  -0.5928  -0.4265  -0.0030
     0.6564   0.7373   0.9267   0.9820   1.2213   1.2693   1.4505   1.4659
     1.4742   1.5909   1.7025   1.7466   1.8175   1.9055   1.9915   2.0545
     2.2001   2.4751   2.6298   2.6579   2.7331   2.9346   2.9357   3.0259
     5.4015   5.5718   6.8040   6.9136   6.9405   7.0919   7.2998   7.5828
     7.6977   8.0763   8.0850

          k = 0.0000 0.2600 0.0000 ( 11330 PWs)   bands (ev):

   -60.4032 -60.4013 -60.3924 -60.3905 -34.4075 -34.4049 -34.3985 -34.3932
   -34.3223 -34.2712 -34.2454 -34.2216 -34.2193 -34.1964 -34.1868 -34.1845
   -13.8978 -13.7860 -12.8295 -12.7492 -12.6813 -12.6140 -12.2596 -12.2350
   -12.0878 -12.0594  -0.8146  -0.8020  -0.7129  -0.6291  -0.5622  -0.2361
    -0.0386   0.1693   0.2263   0.3385   0.8639   0.9938   1.0586   1.4272
     1.4921   1.6912   1.8465   1.9000   2.0673   2.1296   2.2532   2.3808
     2.6272   2.6329   2.6330   2.7871   2.8242   3.0893   3.1350   3.2693
     5.4711   5.6379   6.8454   6.9310   6.9865   7.1504   7.2953   7.6215
     7.7489   8.0928   8.1000

          k = 0.3333 0.0000 0.0000 ( 11263 PWs)   bands (ev):

   -60.3990 -60.3971 -60.3936 -60.3916 -34.4004 -34.3982 -34.3941 -34.3903
   -34.3199 -34.2951 -34.2812 -34.2732 -34.2256 -34.2206 -34.2054 -34.1949
   -13.3951 -13.2593 -12.7843 -12.6454 -12.6300 -12.5892 -12.1883 -12.1832
   -12.1483 -12.1157  -1.2927  -1.2221  -0.4478  -0.4394  -0.3191   0.0064
     0.1125   0.4817   0.4818   0.7770   0.8114   0.8778   1.2187   1.3242
     1.3668   1.5183   1.5481   1.6475   1.6580   1.8054   1.8440   1.9230
     1.9750   2.3697   2.6703   2.7447   2.8661   3.0370   3.1950   3.2169
     5.7610   5.9695   6.6043   6.6330   6.8530   7.1093   7.1804   7.2411
     7.5006   7.5328   7.6615

          k = 0.3333 0.2600 0.0000 ( 11303 PWs)   bands (ev):

   -60.3990 -60.3971 -60.3936 -60.3916 -34.4018 -34.3995 -34.3961 -34.3922
   -34.3198 -34.2949 -34.2811 -34.2730 -34.2256 -34.2207 -34.2055 -34.1950
   -13.3456 -13.2235 -12.7512 -12.6431 -12.6146 -12.5736 -12.1880 -12.1674
   -12.1027 -12.0809  -1.2939  -1.2217  -0.5060  -0.4871  -0.4179  -0.1420
    -0.0667   0.0540   0.1384   0.3487   0.4262   0.5761   0.9674   0.9763
     1.0388   1.1088   1.2457   1.3393   1.4459   1.8706   2.1315   2.3205
     2.5529   2.5940   2.9420   3.1573   3.1721   3.3263   3.3603   3.3862
     5.7796   5.9624   6.6578   6.6797   7.0332   7.2224   7.2486   7.2839
     7.5329   7.5610   7.5835

     the Fermi energy is     4.4230 ev

!    total energy              =   -1273.67315432 Ry
     Harris-Foulkes estimate   =   -1273.67315432 Ry
     estimated scf accuracy    <          7.5E-13 Ry

     total all-electron energy =     -9100.527072 Ry

     The total energy is the sum of the following terms:

     one-electron contribution =    -609.07195157 Ry
     hartree contribution      =     345.97372369 Ry
     xc contribution           =    -154.80384466 Ry
     ewald contribution        =    -480.38335301 Ry
     one-center paw contrib.   =    -375.38772876 Ry
     smearing contrib. (-TS)   =      -0.00000001 Ry

     convergence has been achieved in  27 iterations

     negative rho (up, down):  3.444E-04 0.000E+00

     Forces acting on atoms (cartesian axes, Ry/au):

     atom    1 type  1   force =     0.00000000   -0.00034718   -0.00005638
     atom    2 type  1   force =     0.00000000    0.00034718    0.00005638
     atom    3 type  1   force =     0.00000000    0.00034718   -0.00005638
     atom    4 type  1   force =     0.00000000   -0.00034718    0.00005638
     atom    5 type  2   force =     0.00000000   -0.00002265    0.00003685
     atom    6 type  2   force =     0.00000000    0.00002265   -0.00003685
     atom    7 type  2   force =     0.00000000    0.00002265    0.00003685
     atom    8 type  2   force =     0.00000000   -0.00002265   -0.00003685
     atom    9 type  2   force =     0.00000000    0.00040920   -0.00001349
     atom   10 type  2   force =     0.00000000   -0.00040920    0.00001349
     atom   11 type  2   force =     0.00000000   -0.00040920   -0.00001349
     atom   12 type  2   force =     0.00000000    0.00007596    0.00000000
     atom   13 type  2   force =     0.00000000   -0.00007596    0.00000000
     atom   14 type  2   force =     0.00000000    0.00040920    0.00001349

     Total force =     0.001088     Total SCF correction =     0.000001


     Computing stress (Cartesian axis) and pressure


     negative rho (up, down):  3.444E-04 0.000E+00
          total   stress  (Ry/bohr**3)                   (kbar)     P=       -0.05
   0.00000024   0.00000000   0.00000000            0.04        0.00        0.00
   0.00000000  -0.00000200   0.00000000            0.00       -0.29        0.00
   0.00000000   0.00000000   0.00000071            0.00        0.00        0.10


     number of scf cycles    =   2
     number of bfgs steps    =   1

     enthalpy old            =   -1273.6731541521 Ry
     enthalpy new            =   -1273.6731543202 Ry

     CASE: enthalpy_new < enthalpy_old

     new trust radius        =       0.0002677202 bohr
     new conv_thr            =            1.0E-14 Ry

     new unit-cell volume =   1277.75410 a.u.^3 (   189.34362 Ang^3 )
     density =      3.19017 g/cm^3

CELL_PARAMETERS (angstrom)
   3.572116839   0.000000000   0.000000000
   0.000000000   4.579644232   0.000000000
   0.000000000   0.000000000  11.574261225

ATOMIC_POSITIONS (crystal)
V             0.0000000000        0.3883954481        0.6483628797
V             0.5000000019        0.6116045557        0.8516371260
V             0.5000000019        0.6116045557        0.1483628778
V             0.0000000000        0.3883954481        0.3516371241
O             0.5000000019        0.4920736209        0.6814456716
O             0.0000000000        0.5079263829        0.8185543341
O             0.0000000000        0.5079263829        0.1814456697
O             0.5000000019        0.4920736209        0.3185543322
O             0.0000000000        0.0412509089        0.3557945221
O             0.5000000019        0.9587490949        0.1442054798
O             0.5000000019        0.9587490949        0.8557945240
O             0.5000000019        0.5018801340        0.0000000000
O             0.0000000000        0.4981198697        0.5000000019
O             0.0000000000        0.0412509089        0.6442054817



     Writing output data file ./v2o5.save/
     NEW-OLD atomic charge density approx. for the potential

     Check: negative core charge=   -0.000001

     negative rho (up, down):  3.448E-04 0.000E+00
     extrapolated charge  112.00817, renormalised to  112.00000

     total cpu time spent up to now is       96.5 secs

     Self-consistent Calculation

     iteration #  1     ecut=    65.00 Ry     beta= 0.20
     Davidson diagonalization with overlap
     ethr =  1.00E-06,  avg # of iterations =  2.0

     Threshold (ethr) on eigenvalues was too large:
     Diagonalizing with lowered threshold

     Davidson diagonalization with overlap
     ethr =  1.44E-08,  avg # of iterations =  2.2

     negative rho (up, down):  3.442E-04 0.000E+00

     total cpu time spent up to now is       98.4 secs

     total energy              =   -1273.67314888 Ry
     Harris-Foulkes estimate   =   -1273.63695281 Ry
     estimated scf accuracy    <       0.00001699 Ry

     iteration #  2     ecut=    65.00 Ry     beta= 0.20
     Davidson diagonalization with overlap
     ethr =  1.52E-08,  avg # of iterations =  4.0

     negative rho (up, down):  3.443E-04 0.000E+00

     total cpu time spent up to now is       99.6 secs

     total energy              =   -1273.67315438 Ry
     Harris-Foulkes estimate   =   -1273.67315463 Ry
     estimated scf accuracy    <       0.00000263 Ry

     iteration #  3     ecut=    65.00 Ry     beta= 0.20
     Davidson diagonalization with overlap
     ethr =  2.35E-09,  avg # of iterations =  4.8

     negative rho (up, down):  3.441E-04 0.000E+00

     total cpu time spent up to now is      101.0 secs

     total energy              =   -1273.67315458 Ry
     Harris-Foulkes estimate   =   -1273.67315487 Ry
     estimated scf accuracy    <       0.00000222 Ry

     iteration #  4     ecut=    65.00 Ry     beta= 0.20
     Davidson diagonalization with overlap
     ethr =  1.98E-09,  avg # of iterations =  1.0

     negative rho (up, down):  3.440E-04 0.000E+00

     total cpu time spent up to now is      101.9 secs

     total energy              =   -1273.67315462 Ry
     Harris-Foulkes estimate   =   -1273.67315466 Ry
     estimated scf accuracy    <       0.00000074 Ry

     iteration #  5     ecut=    65.00 Ry     beta= 0.20
     Davidson diagonalization with overlap
     ethr =  6.63E-10,  avg # of iterations =  3.8

     negative rho (up, down):  3.437E-04 0.000E+00

     total cpu time spent up to now is      102.9 secs

     total energy              =   -1273.67315464 Ry
     Harris-Foulkes estimate   =   -1273.67315465 Ry
     estimated scf accuracy    <       0.00000046 Ry

     iteration #  6     ecut=    65.00 Ry     beta= 0.20
     Davidson diagonalization with overlap
     ethr =  4.06E-10,  avg # of iterations =  5.2

     negative rho (up, down):  3.428E-04 0.000E+00

     total cpu time spent up to now is      104.2 secs

     total energy              =   -1273.67315463 Ry
     Harris-Foulkes estimate   =   -1273.67315468 Ry
     estimated scf accuracy    <       0.00000039 Ry

     iteration #  7     ecut=    65.00 Ry     beta= 0.20
     Davidson diagonalization with overlap
     ethr =  3.46E-10,  avg # of iterations =  1.0

     negative rho (up, down):  3.424E-04 0.000E+00

     total cpu time spent up to now is      105.1 secs

     total energy              =   -1273.67315460 Ry
     Harris-Foulkes estimate   =   -1273.67315464 Ry
     estimated scf accuracy    <       0.00000020 Ry

     iteration #  8     ecut=    65.00 Ry     beta= 0.20
     Davidson diagonalization with overlap
     ethr =  1.76E-10,  avg # of iterations =  5.5

     negative rho (up, down):  3.424E-04 0.000E+00

     total cpu time spent up to now is      106.4 secs

     total energy              =   -1273.67315464 Ry
     Harris-Foulkes estimate   =   -1273.67315463 Ry
     estimated scf accuracy    <          6.9E-09 Ry

     iteration #  9     ecut=    65.00 Ry     beta= 0.20
     Davidson diagonalization with overlap
     ethr =  6.14E-12,  avg # of iterations =  5.2

     negative rho (up, down):  3.424E-04 0.000E+00

     total cpu time spent up to now is      109.1 secs

     total energy              =   -1273.67315465 Ry
     Harris-Foulkes estimate   =   -1273.67315464 Ry
     estimated scf accuracy    <       0.00000001 Ry

     iteration # 10     ecut=    65.00 Ry     beta= 0.20
     Davidson diagonalization with overlap
     ethr =  6.14E-12,  avg # of iterations =  1.0

     negative rho (up, down):  3.418E-04 0.000E+00

     total cpu time spent up to now is      110.1 secs

     total energy              =   -1273.67315461 Ry
     Harris-Foulkes estimate   =   -1273.67315465 Ry
     estimated scf accuracy    <       0.00000001 Ry

     iteration # 11     ecut=    65.00 Ry     beta= 0.20
     Davidson diagonalization with overlap
     ethr =  6.14E-12,  avg # of iterations =  5.0

     negative rho (up, down):  3.422E-04 0.000E+00

     total cpu time spent up to now is      111.8 secs

     total energy              =   -1273.67315465 Ry
     Harris-Foulkes estimate   =   -1273.67315468 Ry
     estimated scf accuracy    <       0.00000053 Ry

     iteration # 12     ecut=    65.00 Ry     beta= 0.20
     Davidson diagonalization with overlap
     ethr =  6.14E-12,  avg # of iterations =  4.2

     negative rho (up, down):  3.424E-04 0.000E+00

     total cpu time spent up to now is      113.2 secs

     total energy              =   -1273.67315464 Ry
     Harris-Foulkes estimate   =   -1273.67315466 Ry
     estimated scf accuracy    <       0.00000025 Ry

     iteration # 13     ecut=    65.00 Ry     beta= 0.20
     Davidson diagonalization with overlap
     ethr =  6.14E-12,  avg # of iterations =  4.2

     negative rho (up, down):  3.425E-04 0.000E+00

     total cpu time spent up to now is      114.7 secs

     total energy              =   -1273.67315464 Ry
     Harris-Foulkes estimate   =   -1273.67315465 Ry
     estimated scf accuracy    <       0.00000007 Ry

     iteration # 14     ecut=    65.00 Ry     beta= 0.20
     Davidson diagonalization with overlap
     ethr =  6.14E-12,  avg # of iterations =  4.2

     negative rho (up, down):  3.425E-04 0.000E+00

     total cpu time spent up to now is      115.9 secs

     total energy              =   -1273.67315464 Ry
     Harris-Foulkes estimate   =   -1273.67315464 Ry
     estimated scf accuracy    <       0.00000002 Ry

     iteration # 15     ecut=    65.00 Ry     beta= 0.20
     Davidson diagonalization with overlap
     ethr =  6.14E-12,  avg # of iterations =  2.0

     negative rho (up, down):  3.425E-04 0.000E+00

     total cpu time spent up to now is      116.9 secs

     total energy              =   -1273.67315464 Ry
     Harris-Foulkes estimate   =   -1273.67315464 Ry
     estimated scf accuracy    <          5.2E-09 Ry

     iteration # 16     ecut=    65.00 Ry     beta= 0.20
     Davidson diagonalization with overlap
     ethr =  4.68E-12,  avg # of iterations =  3.2

     negative rho (up, down):  3.425E-04 0.000E+00

     total cpu time spent up to now is      118.0 secs

     total energy              =   -1273.67315464 Ry
     Harris-Foulkes estimate   =   -1273.67315464 Ry
     estimated scf accuracy    <          2.5E-09 Ry

     iteration # 17     ecut=    65.00 Ry     beta= 0.20
     Davidson diagonalization with overlap
     ethr =  2.22E-12,  avg # of iterations =  5.0

     negative rho (up, down):  3.425E-04 0.000E+00

     total cpu time spent up to now is      119.3 secs

     total energy              =   -1273.67315464 Ry
     Harris-Foulkes estimate   =   -1273.67315464 Ry
     estimated scf accuracy    <          5.4E-10 Ry

     iteration # 18     ecut=    65.00 Ry     beta= 0.20
     Davidson diagonalization with overlap
     ethr =  4.81E-13,  avg # of iterations =  3.5

     negative rho (up, down):  3.425E-04 0.000E+00

     total cpu time spent up to now is      120.5 secs

     total energy              =   -1273.67315464 Ry
     Harris-Foulkes estimate   =   -1273.67315464 Ry
     estimated scf accuracy    <          2.1E-10 Ry

     iteration # 19     ecut=    65.00 Ry     beta= 0.20
     Davidson diagonalization with overlap
     ethr =  1.85E-13,  avg # of iterations =  2.0

     negative rho (up, down):  3.425E-04 0.000E+00

     total cpu time spent up to now is      121.5 secs

     total energy              =   -1273.67315464 Ry
     Harris-Foulkes estimate   =   -1273.67315464 Ry
     estimated scf accuracy    <          1.0E-10 Ry

     iteration # 20     ecut=    65.00 Ry     beta= 0.20
     Davidson diagonalization with overlap
     ethr =  1.00E-13,  avg # of iterations =  4.5

     negative rho (up, down):  3.425E-04 0.000E+00

     total cpu time spent up to now is      122.6 secs

     total energy              =   -1273.67315464 Ry
     Harris-Foulkes estimate   =   -1273.67315464 Ry
     estimated scf accuracy    <          3.1E-10 Ry

     iteration # 21     ecut=    65.00 Ry     beta= 0.20
     Davidson diagonalization with overlap
     ethr =  1.00E-13,  avg # of iterations =  1.0

     negative rho (up, down):  3.425E-04 0.000E+00

     total cpu time spent up to now is      123.5 secs

     total energy              =   -1273.67315464 Ry
     Harris-Foulkes estimate   =   -1273.67315464 Ry
     estimated scf accuracy    <          2.8E-10 Ry

     iteration # 22     ecut=    65.00 Ry     beta= 0.20
     Davidson diagonalization with overlap
     ethr =  1.00E-13,  avg # of iterations =  1.0

     negative rho (up, down):  3.425E-04 0.000E+00

     total cpu time spent up to now is      124.4 secs

     total energy              =   -1273.67315464 Ry
     Harris-Foulkes estimate   =   -1273.67315464 Ry
     estimated scf accuracy    <          2.8E-10 Ry

     iteration # 23     ecut=    65.00 Ry     beta= 0.20
     Davidson diagonalization with overlap
     ethr =  1.00E-13,  avg # of iterations =  1.0

     negative rho (up, down):  3.425E-04 0.000E+00

     total cpu time spent up to now is      125.4 secs

     total energy              =   -1273.67315464 Ry
     Harris-Foulkes estimate   =   -1273.67315464 Ry
     estimated scf accuracy    <          2.9E-10 Ry

     iteration # 24     ecut=    65.00 Ry     beta= 0.20
     Davidson diagonalization with overlap
     ethr =  1.00E-13,  avg # of iterations =  4.0

     negative rho (up, down):  3.425E-04 0.000E+00

     total cpu time spent up to now is      126.5 secs

     total energy              =   -1273.67315464 Ry
     Harris-Foulkes estimate   =   -1273.67315464 Ry
     estimated scf accuracy    <          2.1E-11 Ry

     iteration # 25     ecut=    65.00 Ry     beta= 0.20
     Davidson diagonalization with overlap
     ethr =  1.00E-13,  avg # of iterations =  1.0

     negative rho (up, down):  3.425E-04 0.000E+00

     total cpu time spent up to now is      127.4 secs

     total energy              =   -1273.67315464 Ry
     Harris-Foulkes estimate   =   -1273.67315464 Ry
     estimated scf accuracy    <          5.8E-11 Ry

     iteration # 26     ecut=    65.00 Ry     beta= 0.20
     Davidson diagonalization with overlap
     ethr =  1.00E-13,  avg # of iterations =  5.0

     negative rho (up, down):  3.425E-04 0.000E+00

     total cpu time spent up to now is      128.6 secs

     total energy              =   -1273.67315464 Ry
     Harris-Foulkes estimate   =   -1273.67315464 Ry
     estimated scf accuracy    <          7.2E-11 Ry

     iteration # 27     ecut=    65.00 Ry     beta= 0.20
     Davidson diagonalization with overlap
     ethr =  1.00E-13,  avg # of iterations =  2.5

     negative rho (up, down):  3.425E-04 0.000E+00

     total cpu time spent up to now is      129.9 secs

     total energy              =   -1273.67315464 Ry
     Harris-Foulkes estimate   =   -1273.67315464 Ry
     estimated scf accuracy    <          4.4E-12 Ry

     iteration # 28     ecut=    65.00 Ry     beta= 0.20
     Davidson diagonalization with overlap
     ethr =  1.00E-13,  avg # of iterations =  1.0

     negative rho (up, down):  3.425E-04 0.000E+00

     total cpu time spent up to now is      131.1 secs

     total energy              =   -1273.67315464 Ry
     Harris-Foulkes estimate   =   -1273.67315464 Ry
     estimated scf accuracy    <          1.0E-11 Ry

     iteration # 29     ecut=    65.00 Ry     beta= 0.20
     Davidson diagonalization with overlap
     ethr =  1.00E-13,  avg # of iterations =  1.0

     negative rho (up, down):  3.425E-04 0.000E+00

     total cpu time spent up to now is      132.5 secs

     total energy              =   -1273.67315464 Ry
     Harris-Foulkes estimate   =   -1273.67315464 Ry
     estimated scf accuracy    <          1.1E-12 Ry

     iteration # 30     ecut=    65.00 Ry     beta= 0.20
     Davidson diagonalization with overlap
     ethr =  1.00E-13,  avg # of iterations =  1.0

     negative rho (up, down):  3.425E-04 0.000E+00

     total cpu time spent up to now is      133.4 secs

     total energy              =   -1273.67315464 Ry
     Harris-Foulkes estimate   =   -1273.67315464 Ry
     estimated scf accuracy    <          1.8E-12 Ry

     iteration # 31     ecut=    65.00 Ry     beta= 0.20
     Davidson diagonalization with overlap
     ethr =  1.00E-13,  avg # of iterations =  1.0

     negative rho (up, down):  3.425E-04 0.000E+00

     total cpu time spent up to now is      134.3 secs

     total energy              =   -1273.67315464 Ry
     Harris-Foulkes estimate   =   -1273.67315464 Ry
     estimated scf accuracy    <          7.1E-13 Ry

     iteration # 32     ecut=    65.00 Ry     beta= 0.20
     Davidson diagonalization with overlap
     ethr =  1.00E-13,  avg # of iterations =  1.0

     negative rho (up, down):  3.425E-04 0.000E+00

     total cpu time spent up to now is      135.2 secs

     total energy              =   -1273.67315464 Ry
     Harris-Foulkes estimate   =   -1273.67315464 Ry
     estimated scf accuracy    <          6.0E-13 Ry

     iteration # 33     ecut=    65.00 Ry     beta= 0.20
     Davidson diagonalization with overlap
     ethr =  1.00E-13,  avg # of iterations =  1.0

     negative rho (up, down):  3.425E-04 0.000E+00

     total cpu time spent up to now is      136.1 secs

     total energy              =   -1273.67315464 Ry
     Harris-Foulkes estimate   =   -1273.67315464 Ry
     estimated scf accuracy    <          2.5E-14 Ry

     iteration # 34     ecut=    65.00 Ry     beta= 0.20
     Davidson diagonalization with overlap
     ethr =  1.00E-13,  avg # of iterations =  1.0

     negative rho (up, down):  3.425E-04 0.000E+00

     total cpu time spent up to now is      137.0 secs

     total energy              =   -1273.67315464 Ry
     Harris-Foulkes estimate   =   -1273.67315464 Ry
     estimated scf accuracy    <          2.4E-14 Ry

     iteration # 35     ecut=    65.00 Ry     beta= 0.20
     Davidson diagonalization with overlap
     ethr =  1.00E-13,  avg # of iterations =  1.0

     negative rho (up, down):  3.425E-04 0.000E+00

     total cpu time spent up to now is      137.8 secs

     total energy              =   -1273.67315464 Ry
     Harris-Foulkes estimate   =   -1273.67315464 Ry
     estimated scf accuracy    <          1.1E-14 Ry

     iteration # 36     ecut=    65.00 Ry     beta= 0.20
     Davidson diagonalization with overlap
     ethr =  1.00E-13,  avg # of iterations =  1.0

     negative rho (up, down):  3.425E-04 0.000E+00

     total cpu time spent up to now is      139.2 secs

     End of self-consistent calculation

          k = 0.0000 0.0000 0.0000 ( 11299 PWs)   bands (ev):

   -60.4038 -60.4019 -60.3930 -60.3910 -34.4073 -34.4048 -34.3973 -34.3919
   -34.3229 -34.2719 -34.2459 -34.2221 -34.2197 -34.1968 -34.1873 -34.1849
   -13.9543 -13.8335 -12.8799 -12.7677 -12.6848 -12.6322 -12.2459 -12.2450
   -12.1026 -12.0883  -0.7808  -0.7686  -0.6855  -0.5927  -0.4268  -0.0034
     0.6561   0.7360   0.9256   0.9820   1.2202   1.2682   1.4489   1.4641
     1.4730   1.5893   1.7015   1.7448   1.8172   1.9035   1.9902   2.0532
     2.1996   2.4748   2.6285   2.6565   2.7331   2.9336   2.9355   3.0250
     5.4011   5.5714   6.8035   6.9133   6.9400   7.0916   7.2996   7.5828
     7.6968   8.0763   8.0849

          k = 0.0000 0.2600 0.0000 ( 11330 PWs)   bands (ev):

   -60.4038 -60.4019 -60.3930 -60.3910 -34.4086 -34.4060 -34.3996 -34.3943
   -34.3227 -34.2716 -34.2458 -34.2220 -34.2197 -34.1968 -34.1872 -34.1850
   -13.8976 -13.7859 -12.8297 -12.7490 -12.6813 -12.6143 -12.2608 -12.2364
   -12.0892 -12.0608  -0.8146  -0.8020  -0.7128  -0.6290  -0.5626  -0.2369
    -0.0391   0.1688   0.2253   0.3372   0.8626   0.9926   1.0574   1.4258
     1.4906   1.6905   1.8462   1.8996   2.0667   2.1276   2.2517   2.3790
     2.6261   2.6319   2.6325   2.7869   2.8240   3.0885   3.1344   3.2682
     5.4706   5.6375   6.8449   6.9305   6.9860   7.1502   7.2951   7.6205
     7.7488   8.0928   8.0999

          k = 0.3333 0.0000 0.0000 ( 11263 PWs)   bands (ev):

   -60.3996 -60.3977 -60.3941 -60.3922 -34.4015 -34.3993 -34.3952 -34.3914
   -34.3204 -34.2955 -34.2817 -34.2736 -34.2261 -34.2210 -34.2059 -34.1953
   -13.3952 -13.2593 -12.7846 -12.6453 -12.6301 -12.5896 -12.1896 -12.1845
   -12.1497 -12.1170  -1.2924  -1.2219  -0.4477  -0.4395  -0.3194   0.0063
     0.1125   0.4813   0.4815   0.7762   0.8104   0.8765   1.2177   1.3230
     1.3655   1.5169   1.5466   1.6463   1.6564   1.8040   1.8430   1.9223
     1.9734   2.3691   2.6695   2.7434   2.8653   3.0359   3.1946   3.2167
     5.7605   5.9689   6.6038   6.6325   6.8526   7.1092   7.1803   7.2409
     7.5005   7.5327   7.6611

          k = 0.3333 0.2600 0.0000 ( 11303 PWs)   bands (ev):

   -60.3995 -60.3976 -60.3941 -60.3922 -34.4028 -34.4006 -34.3972 -34.3932
   -34.3202 -34.2953 -34.2815 -34.2734 -34.2261 -34.2211 -34.2060 -34.1955
   -13.3456 -13.2235 -12.7514 -12.6430 -12.6147 -12.5739 -12.1894 -12.1688
   -12.1041 -12.0824  -1.2936  -1.2214  -0.5060  -0.4872  -0.4182  -0.1427
    -0.0669   0.0538   0.1378   0.3477   0.4252   0.5757   0.9668   0.9750
     1.0380   1.1078   1.2444   1.3382   1.4444   1.8692   2.1306   2.3189
     2.5519   2.5932   2.9409   3.1565   3.1713   3.3254   3.3599   3.3856
     5.7791   5.9618   6.6573   6.6792   7.0328   7.2223   7.2484   7.2838
     7.5327   7.5607   7.5832

     the Fermi energy is     4.4224 ev

!    total energy              =   -1273.67315464 Ry
     Harris-Foulkes estimate   =   -1273.67315464 Ry
     estimated scf accuracy    <          3.2E-15 Ry

     total all-electron energy =     -9100.527072 Ry

     The total energy is the sum of the following terms:

     one-electron contribution =    -609.11128913 Ry
     hartree contribution      =     345.99066903 Ry
     xc contribution           =    -154.80405689 Ry
     ewald contribution        =    -480.36075350 Ry
     one-center paw contrib.   =    -375.38772414 Ry
     smearing contrib. (-TS)   =      -0.00000001 Ry

     convergence has been achieved in  36 iterations

     negative rho (up, down):  3.425E-04 0.000E+00

     Forces acting on atoms (cartesian axes, Ry/au):

     atom    1 type  1   force =     0.00000000    0.00002162   -0.00001323
     atom    2 type  1   force =     0.00000000   -0.00002162    0.00001323
     atom    3 type  1   force =     0.00000000   -0.00002162   -0.00001323
     atom    4 type  1   force =     0.00000000    0.00002162    0.00001323
     atom    5 type  2   force =     0.00000000   -0.00003957    0.00003885
     atom    6 type  2   force =     0.00000000    0.00003957   -0.00003885
     atom    7 type  2   force =     0.00000000    0.00003957    0.00003885
     atom    8 type  2   force =     0.00000000   -0.00003957   -0.00003885
     atom    9 type  2   force =     0.00000000    0.00009665   -0.00000269
     atom   10 type  2   force =     0.00000000   -0.00009665    0.00000269
     atom   11 type  2   force =     0.00000000   -0.00009665   -0.00000269
     atom   12 type  2   force =     0.00000000    0.00009864    0.00000000
     atom   13 type  2   force =     0.00000000   -0.00009864    0.00000000
     atom   14 type  2   force =     0.00000000    0.00009665    0.00000269

     Total force =     0.000268     Total SCF correction =     0.000000


     Computing stress (Cartesian axis) and pressure


     negative rho (up, down):  3.425E-04 0.000E+00
          total   stress  (Ry/bohr**3)                   (kbar)     P=       -0.01
  -0.00000083   0.00000000   0.00000000           -0.12        0.00        0.00
   0.00000000   0.00000084   0.00000000            0.00        0.12        0.00
   0.00000000   0.00000000  -0.00000021            0.00        0.00       -0.03


     number of scf cycles    =   3
     number of bfgs steps    =   2

     enthalpy old            =   -1273.6731543202 Ry
     enthalpy new            =   -1273.6731546435 Ry

     CASE: enthalpy_new < enthalpy_old

     new trust radius        =       0.0002258891 bohr
     new conv_thr            =            1.0E-14 Ry

     new unit-cell volume =   1277.78694 a.u.^3 (   189.34849 Ang^3 )
     density =      3.19008 g/cm^3

CELL_PARAMETERS (angstrom)
   3.572070330   0.000000000   0.000000000
   0.000000000   4.579788934   0.000000000
   0.000000000   0.000000000  11.574343695

ATOMIC_POSITIONS (crystal)
V             0.0000000000        0.3883950908        0.6483614449
V             0.5000000019        0.6116049130        0.8516385608
V             0.5000000019        0.6116049130        0.1483614430
V             0.0000000000        0.3883950908        0.3516385589
O             0.5000000019        0.4920681097        0.6814480465
O             0.0000000000        0.5079318941        0.8185519592
O             0.0000000000        0.5079318941        0.1814480446
O             0.5000000019        0.4920681097        0.3185519573
O             0.0000000000        0.0412675333        0.3557942788
O             0.5000000019        0.9587324705        0.1442057231
O             0.5000000019        0.9587324705        0.8557942807
O             0.5000000019        0.5018947911        0.0000000000
O             0.0000000000        0.4981052126        0.5000000019
O             0.0000000000        0.0412675333        0.6442057250



     Writing output data file ./v2o5.save/
     NEW-OLD atomic charge density approx. for the potential

     Check: negative core charge=   -0.000001

     negative rho (up, down):  3.430E-04 0.000E+00
     extrapolated charge  112.00288, renormalised to  112.00000

     total cpu time spent up to now is      143.7 secs

     Self-consistent Calculation

     iteration #  1     ecut=    65.00 Ry     beta= 0.20
     Davidson diagonalization with overlap
     ethr =  1.00E-06,  avg # of iterations =  2.0

     Threshold (ethr) on eigenvalues was too large:
     Diagonalizing with lowered threshold

     Davidson diagonalization with overlap
     ethr =  1.53E-09,  avg # of iterations =  3.2

     negative rho (up, down):  3.429E-04 0.000E+00

     total cpu time spent up to now is      145.9 secs

     total energy              =   -1273.67315408 Ry
     Harris-Foulkes estimate   =   -1273.66038714 Ry
     estimated scf accuracy    <       0.00000191 Ry

     iteration #  2     ecut=    65.00 Ry     beta= 0.20
     Davidson diagonalization with overlap
     ethr =  1.71E-09,  avg # of iterations =  4.2

     negative rho (up, down):  3.430E-04 0.000E+00

     total cpu time spent up to now is      147.1 secs

     total energy              =   -1273.67315476 Ry
     Harris-Foulkes estimate   =   -1273.67315479 Ry
     estimated scf accuracy    <       0.00000041 Ry

     iteration #  3     ecut=    65.00 Ry     beta= 0.20
     Davidson diagonalization with overlap
     ethr =  3.62E-10,  avg # of iterations =  3.8

     negative rho (up, down):  3.431E-04 0.000E+00

     total cpu time spent up to now is      148.2 secs

     total energy              =   -1273.67315477 Ry
     Harris-Foulkes estimate   =   -1273.67315480 Ry
     estimated scf accuracy    <       0.00000025 Ry

     iteration #  4     ecut=    65.00 Ry     beta= 0.20
     Davidson diagonalization with overlap
     ethr =  2.24E-10,  avg # of iterations =  2.2

     negative rho (up, down):  3.431E-04 0.000E+00

     total cpu time spent up to now is      149.2 secs

     total energy              =   -1273.67315477 Ry
     Harris-Foulkes estimate   =   -1273.67315478 Ry
     estimated scf accuracy    <       0.00000012 Ry

     iteration #  5     ecut=    65.00 Ry     beta= 0.20
     Davidson diagonalization with overlap
     ethr =  1.07E-10,  avg # of iterations =  1.2

     negative rho (up, down):  3.432E-04 0.000E+00

     total cpu time spent up to now is      150.2 secs

     total energy              =   -1273.67315476 Ry
     Harris-Foulkes estimate   =   -1273.67315477 Ry
     estimated scf accuracy    <       0.00000005 Ry

     iteration #  6     ecut=    65.00 Ry     beta= 0.20
     Davidson diagonalization with overlap
     ethr =  4.90E-11,  avg # of iterations =  5.0

     negative rho (up, down):  3.431E-04 0.000E+00

     total cpu time spent up to now is      151.5 secs

     total energy              =   -1273.67315477 Ry
     Harris-Foulkes estimate   =   -1273.67315477 Ry
     estimated scf accuracy    <          4.2E-09 Ry

     iteration #  7     ecut=    65.00 Ry     beta= 0.20
     Davidson diagonalization with overlap
     ethr =  3.73E-12,  avg # of iterations =  4.8

     negative rho (up, down):  3.431E-04 0.000E+00

     total cpu time spent up to now is      153.0 secs

     total energy              =   -1273.67315477 Ry
     Harris-Foulkes estimate   =   -1273.67315477 Ry
     estimated scf accuracy    <          1.6E-09 Ry

     iteration #  8     ecut=    65.00 Ry     beta= 0.20
     Davidson diagonalization with overlap
     ethr =  1.42E-12,  avg # of iterations =  4.8

     negative rho (up, down):  3.428E-04 0.000E+00

     total cpu time spent up to now is      154.2 secs

     total energy              =   -1273.67315477 Ry
     Harris-Foulkes estimate   =   -1273.67315477 Ry
     estimated scf accuracy    <          1.1E-09 Ry

     iteration #  9     ecut=    65.00 Ry     beta= 0.20
     Davidson diagonalization with overlap
     ethr =  9.64E-13,  avg # of iterations =  5.0

     negative rho (up, down):  3.428E-04 0.000E+00

     total cpu time spent up to now is      155.5 secs

     total energy              =   -1273.67315477 Ry
     Harris-Foulkes estimate   =   -1273.67315477 Ry
     estimated scf accuracy    <          9.9E-10 Ry

     iteration # 10     ecut=    65.00 Ry     beta= 0.20
     Davidson diagonalization with overlap
     ethr =  8.82E-13,  avg # of iterations =  1.2

     negative rho (up, down):  3.428E-04 0.000E+00

     total cpu time spent up to now is      156.4 secs

     total energy              =   -1273.67315477 Ry
     Harris-Foulkes estimate   =   -1273.67315477 Ry
     estimated scf accuracy    <          8.9E-10 Ry

     iteration # 11     ecut=    65.00 Ry     beta= 0.20
     Davidson diagonalization with overlap
     ethr =  7.95E-13,  avg # of iterations =  1.0

     negative rho (up, down):  3.429E-04 0.000E+00

     total cpu time spent up to now is      157.4 secs

     total energy              =   -1273.67315477 Ry
     Harris-Foulkes estimate   =   -1273.67315477 Ry
     estimated scf accuracy    <          4.0E-10 Ry

     iteration # 12     ecut=    65.00 Ry     beta= 0.20
     Davidson diagonalization with overlap
     ethr =  3.60E-13,  avg # of iterations =  4.5

     negative rho (up, down):  3.429E-04 0.000E+00

     total cpu time spent up to now is      158.6 secs

     total energy              =   -1273.67315477 Ry
     Harris-Foulkes estimate   =   -1273.67315477 Ry
     estimated scf accuracy    <          2.9E-11 Ry

     iteration # 13     ecut=    65.00 Ry     beta= 0.20
     Davidson diagonalization with overlap
     ethr =  1.00E-13,  avg # of iterations =  2.5

     negative rho (up, down):  3.430E-04 0.000E+00

     total cpu time spent up to now is      159.6 secs

     total energy              =   -1273.67315477 Ry
     Harris-Foulkes estimate   =   -1273.67315477 Ry
     estimated scf accuracy    <          1.9E-11 Ry

     iteration # 14     ecut=    65.00 Ry     beta= 0.20
     Davidson diagonalization with overlap
     ethr =  1.00E-13,  avg # of iterations =  3.2

     negative rho (up, down):  3.430E-04 0.000E+00

     total cpu time spent up to now is      160.7 secs

     total energy              =   -1273.67315477 Ry
     Harris-Foulkes estimate   =   -1273.67315477 Ry
     estimated scf accuracy    <          2.4E-11 Ry

     iteration # 15     ecut=    65.00 Ry     beta= 0.20
     Davidson diagonalization with overlap
     ethr =  1.00E-13,  avg # of iterations =  1.0

     negative rho (up, down):  3.430E-04 0.000E+00

     total cpu time spent up to now is      161.6 secs

     total energy              =   -1273.67315477 Ry
     Harris-Foulkes estimate   =   -1273.67315477 Ry
     estimated scf accuracy    <          6.3E-12 Ry

     iteration # 16     ecut=    65.00 Ry     beta= 0.20
     Davidson diagonalization with overlap
     ethr =  1.00E-13,  avg # of iterations =  1.0

     negative rho (up, down):  3.429E-04 0.000E+00

     total cpu time spent up to now is      162.5 secs

     total energy              =   -1273.67315477 Ry
     Harris-Foulkes estimate   =   -1273.67315477 Ry
     estimated scf accuracy    <          3.6E-12 Ry

     iteration # 17     ecut=    65.00 Ry     beta= 0.20
     Davidson diagonalization with overlap
     ethr =  1.00E-13,  avg # of iterations =  1.8

     negative rho (up, down):  3.430E-04 0.000E+00

     total cpu time spent up to now is      163.4 secs

     total energy              =   -1273.67315477 Ry
     Harris-Foulkes estimate   =   -1273.67315477 Ry
     estimated scf accuracy    <          1.6E-12 Ry

     iteration # 18     ecut=    65.00 Ry     beta= 0.20
     Davidson diagonalization with overlap
     ethr =  1.00E-13,  avg # of iterations =  1.0

     negative rho (up, down):  3.430E-04 0.000E+00

     total cpu time spent up to now is      164.3 secs

     total energy              =   -1273.67315477 Ry
     Harris-Foulkes estimate   =   -1273.67315477 Ry
     estimated scf accuracy    <          3.6E-13 Ry

     iteration # 19     ecut=    65.00 Ry     beta= 0.20
     Davidson diagonalization with overlap
     ethr =  1.00E-13,  avg # of iterations =  1.0

     negative rho (up, down):  3.430E-04 0.000E+00

     total cpu time spent up to now is      165.2 secs

     total energy              =   -1273.67315477 Ry
     Harris-Foulkes estimate   =   -1273.67315477 Ry
[...]
     estimated scf accuracy    <       0.00000465 Ry

     iteration # 34     ecut=    65.00 Ry     beta= 0.20
     Davidson diagonalization with overlap
     ethr =  3.45E-09,  avg # of iterations =  5.0

     negative rho (up, down):  3.417E-04 0.000E+00

     total cpu time spent up to now is      892.8 secs

     total energy              =   -1273.67326707 Ry
     Harris-Foulkes estimate   =   -1273.67326961 Ry
     estimated scf accuracy    <       0.00000822 Ry

     iteration # 35     ecut=    65.00 Ry     beta= 0.20
     Davidson diagonalization with overlap
     ethr =  3.45E-09,  avg # of iterations =  4.2

     negative rho (up, down):  3.420E-04 0.000E+00

     total cpu time spent up to now is      893.9 secs

     total energy              =   -1273.67326763 Ry
     Harris-Foulkes estimate   =   -1273.67326779 Ry
     estimated scf accuracy    <       0.00000067 Ry

     iteration # 36     ecut=    65.00 Ry     beta= 0.20
     Davidson diagonalization with overlap
     ethr =  5.97E-10,  avg # of iterations =  5.0

     negative rho (up, down):  3.424E-04 0.000E+00

     total cpu time spent up to now is      895.5 secs

     total energy              =   -1273.67326827 Ry
     Harris-Foulkes estimate   =   -1273.67326851 Ry
     estimated scf accuracy    <       0.00000117 Ry

     iteration # 37     ecut=    65.00 Ry     beta= 0.20
     Davidson diagonalization with overlap
     ethr =  5.97E-10,  avg # of iterations =  1.0

     negative rho (up, down):  3.434E-04 0.000E+00

     total cpu time spent up to now is      896.4 secs

     total energy              =   -1273.67326808 Ry
     Harris-Foulkes estimate   =   -1273.67326831 Ry
     estimated scf accuracy    <       0.00000037 Ry

     iteration # 38     ecut=    65.00 Ry     beta= 0.20
     Davidson diagonalization with overlap
     ethr =  3.28E-10,  avg # of iterations =  5.0

     negative rho (up, down):  3.414E-04 0.000E+00

     total cpu time spent up to now is      898.1 secs

     total energy              =   -1273.67326810 Ry
     Harris-Foulkes estimate   =   -1273.67326870 Ry
     estimated scf accuracy    <       0.00000212 Ry

     iteration # 39     ecut=    65.00 Ry     beta= 0.20
     Davidson diagonalization with overlap
     ethr =  3.28E-10,  avg # of iterations =  5.0

     negative rho (up, down):  3.415E-04 0.000E+00

     total cpu time spent up to now is      899.5 secs

     total energy              =   -1273.67326835 Ry
     Harris-Foulkes estimate   =   -1273.67326834 Ry
     estimated scf accuracy    <       0.00000001 Ry

     iteration # 40     ecut=    65.00 Ry     beta= 0.20
     Davidson diagonalization with overlap
     ethr =  9.12E-12,  avg # of iterations =  5.8

     negative rho (up, down):  3.418E-04 0.000E+00

     total cpu time spent up to now is      901.0 secs

     total energy              =   -1273.67326835 Ry
     Harris-Foulkes estimate   =   -1273.67326836 Ry
     estimated scf accuracy    <       0.00000004 Ry

     iteration # 41     ecut=    65.00 Ry     beta= 0.20
     Davidson diagonalization with overlap
     ethr =  9.12E-12,  avg # of iterations =  3.5

     negative rho (up, down):  3.418E-04 0.000E+00

     total cpu time spent up to now is      902.1 secs

     total energy              =   -1273.67326835 Ry
     Harris-Foulkes estimate   =   -1273.67326835 Ry
     estimated scf accuracy    <       0.00000001 Ry

     iteration # 42     ecut=    65.00 Ry     beta= 0.20
     Davidson diagonalization with overlap
     ethr =  9.12E-12,  avg # of iterations =  5.5

     negative rho (up, down):  3.417E-04 0.000E+00

     total cpu time spent up to now is      903.5 secs

     total energy              =   -1273.67326835 Ry
     Harris-Foulkes estimate   =   -1273.67326835 Ry
     estimated scf accuracy    <          2.8E-09 Ry

     iteration # 43     ecut=    65.00 Ry     beta= 0.20
     Davidson diagonalization with overlap
     ethr =  2.52E-12,  avg # of iterations =  4.5

     negative rho (up, down):  3.418E-04 0.000E+00

     total cpu time spent up to now is      904.7 secs

     total energy              =   -1273.67326835 Ry
     Harris-Foulkes estimate   =   -1273.67326835 Ry
     estimated scf accuracy    <          3.1E-10 Ry

     iteration # 44     ecut=    65.00 Ry     beta= 0.20
     Davidson diagonalization with overlap
     ethr =  2.72E-13,  avg # of iterations =  5.0

     negative rho (up, down):  3.418E-04 0.000E+00

     total cpu time spent up to now is      906.5 secs

     total energy              =   -1273.67326835 Ry
     Harris-Foulkes estimate   =   -1273.67326835 Ry
     estimated scf accuracy    <          9.3E-09 Ry

     iteration # 45     ecut=    65.00 Ry     beta= 0.20
     Davidson diagonalization with overlap
     ethr =  2.72E-13,  avg # of iterations =  5.0

     negative rho (up, down):  3.417E-04 0.000E+00

     total cpu time spent up to now is      908.3 secs

     total energy              =   -1273.67326835 Ry
     Harris-Foulkes estimate   =   -1273.67326835 Ry
     estimated scf accuracy    <          3.0E-10 Ry

     iteration # 46     ecut=    65.00 Ry     beta= 0.20
     Davidson diagonalization with overlap
     ethr =  2.71E-13,  avg # of iterations =  5.0

     negative rho (up, down):  3.417E-04 0.000E+00

     total cpu time spent up to now is      909.8 secs

     total energy              =   -1273.67326835 Ry
     Harris-Foulkes estimate   =   -1273.67326835 Ry
     estimated scf accuracy    <          2.2E-09 Ry

     iteration # 47     ecut=    65.00 Ry     beta= 0.20
     Davidson diagonalization with overlap
     ethr =  2.71E-13,  avg # of iterations =  5.0

     negative rho (up, down):  3.417E-04 0.000E+00

     total cpu time spent up to now is      911.5 secs

     total energy              =   -1273.67326835 Ry
     Harris-Foulkes estimate   =   -1273.67326835 Ry
     estimated scf accuracy    <          4.1E-10 Ry

     iteration # 48     ecut=    65.00 Ry     beta= 0.20
     Davidson diagonalization with overlap
     ethr =  2.71E-13,  avg # of iterations =  1.0

     negative rho (up, down):  3.417E-04 0.000E+00

     total cpu time spent up to now is      912.4 secs

     total energy              =   -1273.67326835 Ry
     Harris-Foulkes estimate   =   -1273.67326835 Ry
     estimated scf accuracy    <          2.8E-10 Ry

     iteration # 49     ecut=    65.00 Ry     beta= 0.20
     Davidson diagonalization with overlap
     ethr =  2.49E-13,  avg # of iterations =  6.8

     negative rho (up, down):  3.417E-04 0.000E+00

     total cpu time spent up to now is      913.7 secs

     total energy              =   -1273.67326835 Ry
     Harris-Foulkes estimate   =   -1273.67326835 Ry
     estimated scf accuracy    <          3.6E-12 Ry

     iteration # 50     ecut=    65.00 Ry     beta= 0.20
     Davidson diagonalization with overlap
     ethr =  1.00E-13,  avg # of iterations =  5.5

     negative rho (up, down):  3.417E-04 0.000E+00

     total cpu time spent up to now is      915.1 secs

     total energy              =   -1273.67326835 Ry
     Harris-Foulkes estimate   =   -1273.67326835 Ry
     estimated scf accuracy    <          5.2E-11 Ry

     iteration # 51     ecut=    65.00 Ry     beta= 0.20
     Davidson diagonalization with overlap
     ethr =  1.00E-13,  avg # of iterations =  1.5

     negative rho (up, down):  3.417E-04 0.000E+00

     total cpu time spent up to now is      916.0 secs

     total energy              =   -1273.67326835 Ry
     Harris-Foulkes estimate   =   -1273.67326835 Ry
     estimated scf accuracy    <          3.6E-11 Ry

     iteration # 52     ecut=    65.00 Ry     beta= 0.20
     Davidson diagonalization with overlap
     ethr =  1.00E-13,  avg # of iterations =  1.0

     negative rho (up, down):  3.417E-04 0.000E+00

     total cpu time spent up to now is      916.9 secs

     total energy              =   -1273.67326835 Ry
     Harris-Foulkes estimate   =   -1273.67326835 Ry
     estimated scf accuracy    <          8.5E-12 Ry

     iteration # 53     ecut=    65.00 Ry     beta= 0.20
     Davidson diagonalization with overlap
     ethr =  1.00E-13,  avg # of iterations =  3.0

     negative rho (up, down):  3.417E-04 0.000E+00

     total cpu time spent up to now is      917.9 secs

     total energy              =   -1273.67326835 Ry
     Harris-Foulkes estimate   =   -1273.67326835 Ry
     estimated scf accuracy    <          5.1E-12 Ry

     iteration # 54     ecut=    65.00 Ry     beta= 0.20
     Davidson diagonalization with overlap
     ethr =  1.00E-13,  avg # of iterations =  1.0

     negative rho (up, down):  3.417E-04 0.000E+00

     total cpu time spent up to now is      918.8 secs

     total energy              =   -1273.67326835 Ry
     Harris-Foulkes estimate   =   -1273.67326835 Ry
     estimated scf accuracy    <          1.5E-12 Ry

     iteration # 55     ecut=    65.00 Ry     beta= 0.20
     Davidson diagonalization with overlap
     ethr =  1.00E-13,  avg # of iterations =  1.0

     negative rho (up, down):  3.417E-04 0.000E+00

     total cpu time spent up to now is      919.7 secs

     total energy              =   -1273.67326835 Ry
     Harris-Foulkes estimate   =   -1273.67326835 Ry
     estimated scf accuracy    <          5.2E-14 Ry

     iteration # 56     ecut=    65.00 Ry     beta= 0.20
     Davidson diagonalization with overlap
     ethr =  1.00E-13,  avg # of iterations =  1.0

     negative rho (up, down):  3.417E-04 0.000E+00

     total cpu time spent up to now is      920.6 secs

     total energy              =   -1273.67326835 Ry
     Harris-Foulkes estimate   =   -1273.67326835 Ry
     estimated scf accuracy    <          2.3E-14 Ry

     iteration # 57     ecut=    65.00 Ry     beta= 0.20
     Davidson diagonalization with overlap
     ethr =  1.00E-13,  avg # of iterations =  1.0

     negative rho (up, down):  3.417E-04 0.000E+00

     total cpu time spent up to now is      921.5 secs

     total energy              =   -1273.67326835 Ry
     Harris-Foulkes estimate   =   -1273.67326835 Ry
     estimated scf accuracy    <          6.1E-13 Ry

     iteration # 58     ecut=    65.00 Ry     beta= 0.20
     Davidson diagonalization with overlap
     ethr =  1.00E-13,  avg # of iterations =  1.0

     negative rho (up, down):  3.417E-04 0.000E+00

     total cpu time spent up to now is      922.4 secs

     total energy              =   -1273.67326835 Ry
     Harris-Foulkes estimate   =   -1273.67326835 Ry
     estimated scf accuracy    <          5.1E-13 Ry

     iteration # 59     ecut=    65.00 Ry     beta= 0.20
     Davidson diagonalization with overlap
     ethr =  1.00E-13,  avg # of iterations =  1.0

     negative rho (up, down):  3.417E-04 0.000E+00

     total cpu time spent up to now is      923.3 secs

     total energy              =   -1273.67326835 Ry
     Harris-Foulkes estimate   =   -1273.67326835 Ry
     estimated scf accuracy    <          8.0E-14 Ry

     iteration # 60     ecut=    65.00 Ry     beta= 0.20
     Davidson diagonalization with overlap
     ethr =  1.00E-13,  avg # of iterations =  1.0

     negative rho (up, down):  3.417E-04 0.000E+00

     total cpu time spent up to now is      924.2 secs

     total energy              =   -1273.67326835 Ry
     Harris-Foulkes estimate   =   -1273.67326835 Ry
     estimated scf accuracy    <          2.3E-14 Ry

     iteration # 61     ecut=    65.00 Ry     beta= 0.20
     Davidson diagonalization with overlap
     ethr =  1.00E-13,  avg # of iterations =  1.0

     negative rho (up, down):  3.417E-04 0.000E+00

     total cpu time spent up to now is      925.1 secs

     total energy              =   -1273.67326835 Ry
     Harris-Foulkes estimate   =   -1273.67326835 Ry
     estimated scf accuracy    <          5.2E-14 Ry

     iteration # 62     ecut=    65.00 Ry     beta= 0.20
     Davidson diagonalization with overlap
     ethr =  1.00E-13,  avg # of iterations =  1.0

     negative rho (up, down):  3.417E-04 0.000E+00

     total cpu time spent up to now is      926.0 secs

     End of self-consistent calculation

          k = 0.0000 0.0000 0.0000 ( 11319 PWs)   bands (ev):

   -60.4154 -60.4135 -60.4045 -60.4026 -34.4190 -34.4166 -34.4091 -34.4037
   -34.3346 -34.2835 -34.2576 -34.2338 -34.2314 -34.2085 -34.1990 -34.1965
   -13.9668 -13.8462 -12.8917 -12.7799 -12.6971 -12.6446 -12.2573 -12.2560
   -12.1134 -12.0996  -0.7946  -0.7825  -0.6977  -0.6062  -0.4390  -0.0175
     0.6407   0.7237   0.9115   0.9688   1.2066   1.2547   1.4345   1.4485
     1.4621   1.5740   1.6888   1.7346   1.8052   1.8923   1.9795   2.0397
     2.1899   2.4602   2.6179   2.6459   2.7213   2.9227   2.9236   3.0136
     5.3896   5.5603   6.7918   6.9020   6.9297   7.0812   7.2888   7.5729
     7.6846   8.0662   8.0747

          k = 0.0000 0.2597 0.0000 ( 11338 PWs)   bands (ev):

   -60.4153 -60.4134 -60.4045 -60.4026 -34.4203 -34.4177 -34.4112 -34.4059
   -34.3344 -34.2832 -34.2575 -34.2336 -34.2313 -34.2085 -34.1989 -34.1966
   -13.9108 -13.7991 -12.8424 -12.7615 -12.6937 -12.6270 -12.2721 -12.2476
   -12.1006 -12.0721  -0.8279  -0.8154  -0.7246  -0.6421  -0.5744  -0.2464
    -0.0514   0.1587   0.2165   0.3272   0.8541   0.9813   1.0461   1.4156
     1.4796   1.6786   1.8338   1.8876   2.0537   2.1158   2.2393   2.3667
     2.6141   2.6177   2.6200   2.7736   2.8111   3.0744   3.1207   3.2536
     5.4584   5.6254   6.8328   6.9188   6.9741   7.1389   7.2838   7.6085
     7.7384   8.0820   8.0890

          k = 0.3333 0.0000 0.0000 ( 11303 PWs)   bands (ev):

   -60.4111 -60.4092 -60.4057 -60.4038 -34.4133 -34.4111 -34.4070 -34.4031
   -34.3320 -34.3071 -34.2933 -34.2853 -34.2378 -34.2327 -34.2176 -34.2070
   -13.4076 -13.2721 -12.7966 -12.6581 -12.6426 -12.6020 -12.2004 -12.1957
   -12.1602 -12.1282  -1.3053  -1.2346  -0.4607  -0.4515  -0.3317  -0.0062
     0.1001   0.4674   0.4678   0.7624   0.7973   0.8637   1.2047   1.3105
     1.3532   1.5024   1.5313   1.6320   1.6438   1.7882   1.8332   1.9094
     1.9625   2.3564   2.6587   2.7331   2.8541   3.0259   3.1832   3.2041
     5.7491   5.9572   6.5926   6.6213   6.8426   7.0987   7.1702   7.2296
     7.4904   7.5227   7.6496

          k = 0.3333 0.2597 0.0000 ( 11307 PWs)   bands (ev):

   -60.4111 -60.4092 -60.4057 -60.4038 -34.4145 -34.4123 -34.4089 -34.4049
   -34.3318 -34.3070 -34.2931 -34.2850 -34.2377 -34.2327 -34.2176 -34.2071
   -13.3586 -13.2366 -12.7639 -12.6558 -12.6275 -12.5865 -12.2007 -12.1802
   -12.1154 -12.0936  -1.3064  -1.2342  -0.5184  -0.4987  -0.4299  -0.1527
    -0.0783   0.0423   0.1280   0.3382   0.4162   0.5629   0.9555   0.9661
     1.0263   1.0979   1.2345   1.3276   1.4331   1.8568   2.1176   2.3067
     2.5380   2.5811   2.9262   3.1424   3.1570   3.3112   3.3464   3.3722
     5.7674   5.9500   6.6454   6.6673   7.0215   7.2109   7.2371   7.2724
     7.5212   7.5496   7.5719

     the Fermi energy is     4.4099 ev

!    total energy              =   -1273.67326835 Ry
     Harris-Foulkes estimate   =   -1273.67326835 Ry
     estimated scf accuracy    <          5.5E-15 Ry

     total all-electron energy =     -9100.527186 Ry

     The total energy is the sum of the following terms:

     one-electron contribution =    -610.02660183 Ry
     hartree contribution      =     346.39881014 Ry
     xc contribution           =    -154.80392991 Ry
     ewald contribution        =    -479.85383304 Ry
     one-center paw contrib.   =    -375.38771371 Ry
     smearing contrib. (-TS)   =      -0.00000001 Ry

     convergence has been achieved in  62 iterations

     negative rho (up, down):  3.417E-04 0.000E+00

     Forces acting on atoms (cartesian axes, Ry/au):

     atom    1 type  1   force =     0.00000000   -0.00000623   -0.00000241
     atom    2 type  1   force =     0.00000000    0.00000623    0.00000241
     atom    3 type  1   force =     0.00000000    0.00000623   -0.00000241
     atom    4 type  1   force =     0.00000000   -0.00000623    0.00000241
     atom    5 type  2   force =     0.00000000    0.00000926   -0.00000358
     atom    6 type  2   force =     0.00000000   -0.00000926    0.00000358
     atom    7 type  2   force =     0.00000000   -0.00000926   -0.00000358
     atom    8 type  2   force =     0.00000000    0.00000926    0.00000358
     atom    9 type  2   force =     0.00000000    0.00000242    0.00000710
     atom   10 type  2   force =     0.00000000   -0.00000242   -0.00000710
     atom   11 type  2   force =     0.00000000   -0.00000242    0.00000710
     atom   12 type  2   force =     0.00000000   -0.00000197    0.00000000
     atom   13 type  2   force =     0.00000000    0.00000197    0.00000000
     atom   14 type  2   force =     0.00000000    0.00000242   -0.00000710

     Total force =     0.000028     Total SCF correction =     0.000000


     Computing stress (Cartesian axis) and pressure


     negative rho (up, down):  3.417E-04 0.000E+00
          total   stress  (Ry/bohr**3)                   (kbar)     P=        0.02
   0.00000013   0.00000000   0.00000000            0.02        0.00        0.00
   0.00000000   0.00000020   0.00000000            0.00        0.03        0.00
   0.00000000   0.00000000   0.00000001            0.00        0.00        0.00


     Writing output data file ./v2o5.save/
 
     init_run     :      3.43s CPU      3.56s WALL (       2 calls)
     electrons    :    772.56s CPU    823.29s WALL (      23 calls)
     update_pot   :     31.79s CPU     31.99s WALL (      21 calls)
     forces       :     18.81s CPU     19.53s WALL (      23 calls)
     stress       :     42.54s CPU     43.93s WALL (      23 calls)

     Called by init_run:
     wfcinit      :      0.47s CPU      0.50s WALL (       2 calls)
     potinit      :      0.83s CPU      0.84s WALL (       2 calls)
     hinit0       :      1.37s CPU      1.39s WALL (       2 calls)

     Called by electrons:
     c_bands      :    460.24s CPU    472.09s WALL (     758 calls)
     sum_band     :    128.95s CPU    150.71s WALL (     758 calls)
     v_of_rho     :     25.87s CPU     26.58s WALL (     762 calls)
     newd         :     55.82s CPU     70.68s WALL (     762 calls)
     PAW_pot      :     75.40s CPU     76.00s WALL (     783 calls)
     mix_rho      :     29.16s CPU     30.05s WALL (     758 calls)

     Called by c_bands:
     init_us_2    :      4.72s CPU      5.03s WALL (    6340 calls)
     cegterg      :    442.04s CPU    453.30s WALL (    3032 calls)

     Called by sum_band:
     sum_band:bec :      0.57s CPU      0.58s WALL (    3116 calls)
     addusdens    :     63.37s CPU     82.45s WALL (     758 calls)

     Called by *egterg:
     h_psi        :    237.19s CPU    245.52s WALL (   10368 calls)
     s_psi        :     24.61s CPU     24.93s WALL (   10368 calls)
     g_psi        :      1.28s CPU      1.29s WALL (    7328 calls)
     cdiaghg      :    100.72s CPU    101.66s WALL (   10200 calls)

     Called by h_psi:
     h_psi:calbec :     29.20s CPU     30.12s WALL (   10368 calls)
     vloc_psi     :    180.72s CPU    187.93s WALL (   10368 calls)
     add_vuspsi   :     25.93s CPU     26.08s WALL (   10368 calls)

     General routines
     calbec       :     43.06s CPU     44.41s WALL (   13944 calls)
     fft          :     16.71s CPU     17.01s WALL (   10475 calls)
     ffts         :     16.60s CPU     17.07s WALL (   37976 calls)
     fftw         :    205.92s CPU    214.30s WALL ( 1119128 calls)
     interpolate  :      1.74s CPU      1.76s WALL (     762 calls)
 
     Parallel routines
     fft_scatt_xy :     22.56s CPU     23.36s WALL ( 1167579 calls)
     fft_scatt_yz :    114.92s CPU    120.33s WALL ( 1167579 calls)
 
     PWSCF        :  14m34.87s CPU  15m28.92s WALL

 
   This run was terminated on:  12:31:37  13Nov2021            

=------------------------------------------------------------------------------=
   JOB DONE.
=------------------------------------------------------------------------------=
