
     Program PWSCF v.6.4.1 starts on 19Oct2024 at 20: 4:38 

     This program is part of the open-source Quantum ESPRESSO suite
     for quantum simulation of materials; please cite
         "P. Giannozzi et al., J. Phys.:Condens. Matter 21 395502 (2009);
         "P. Giannozzi et al., J. Phys.:Condens. Matter 29 465901 (2017);
          URL http://www.quantum-espresso.org", 
     in publications or presentations arising from this work. More details at
     http://www.quantum-espresso.org/quote

     Parallel version (MPI), running on    32 processors

     MPI processes distributed on     1 nodes
     R & G space division:  proc/nbgrp/npool/nimage =      32
     Reading input from liv16o40.rlx.in
Warning: card &CELL ignored
Warning: card     CELL_DYNAMICS  = "BFGS" ignored
Warning: card / ignored

     Current dimensions of program PWSCF are:
     Max number of different atomic species (ntypx) = 10
     Max number of k-points (npk) =  40000
     Max angular momentum in pseudopotentials (lmaxx) =  3

     IMPORTANT: XC functional enforced from input :
     Exchange-correlation      = VDW-DF ( 1  4  4  0 1 0)
     Any further DFT definition will be discarded
     Please, verify this is what you really want

               file V.pbesol-spnl-kjpaw_psl.1.0.0.UPF: wavefunction(s)  3P 3D renormalized
               file O.pbesol-n-kjpaw_psl.1.0.0.UPF: wavefunction(s)  2S 2P renormalized

     Subspace diagonalization in iterative solution of the eigenvalue problem:
     one sub-group per band group will be used
     ELPA distributed-memory algorithm (size of sub-group:  4*  4 procs)


     Parallelization info
     --------------------
     sticks:   dense  smooth     PW     G-vecs:    dense   smooth      PW
     Min         249     100     27                20221     5114     743
     Max         250     101     28                20224     5115     748
     Sum        7999    3209    891               647119   163657   23859



     bravais-lattice index     =            0
     lattice parameter (alat)  =      13.6262  a.u.
     unit-cell volume          =    4790.1372 (a.u.)^3
     number of atoms/cell      =           57
     number of atomic types    =            3
     number of electrons       =       451.00
     number of Kohn-Sham states=          271
     kinetic-energy cutoff     =      40.0000  Ry
     charge density cutoff     =     400.0000  Ry
     convergence threshold     =      1.0E-06
     mixing beta               =       0.4000
     number of iterations used =            8  plain     mixing
     Exchange-correlation      = VDW-DF ( 1  4  4  0 1 0)
     nstep                     =          500


     celldm(1)=  13.626204  celldm(2)=   0.000000  celldm(3)=   0.000000
     celldm(4)=   0.000000  celldm(5)=   0.000000  celldm(6)=   0.000000

     crystal axes: (cart. coord. in units of alat)
               a(1) = (   1.000000   0.000000   0.000000 )  
               a(2) = (   0.000000   1.353546   0.000000 )  
               a(3) = (   0.000000   0.000000   1.398783 )  

     reciprocal axes: (cart. coord. in units 2 pi/alat)
               b(1) = (  1.000000  0.000000  0.000000 )  
               b(2) = (  0.000000  0.738800  0.000000 )  
               b(3) = (  0.000000  0.000000  0.714907 )  


     PseudoPot. # 1 for V  read from file:
     /home/mpicuntureo/pseudos/V.pbesol-spnl-kjpaw_psl.1.0.0.UPF
     MD5 check sum: d709b3179d4cab0f72010db8785d50db
     Pseudo is Projector augmented-wave + core cor, Zval = 13.0
     Generated using "atomic" code by A. Dal Corso v.6.3
     Shape of augmentation charge: PSQ
     Using radial grid of 1181 points,  6 beta functions with: 
                l(1) =   0
                l(2) =   0
                l(3) =   1
                l(4) =   1
                l(5) =   2
                l(6) =   2
     Q(r) pseudized with 0 coefficients 


     PseudoPot. # 2 for O  read from file:
     /home/mpicuntureo/pseudos/O.pbesol-n-kjpaw_psl.1.0.0.UPF
     MD5 check sum: cb766521a97cf798d01896eaf7ac9a0a
     Pseudo is Projector augmented-wave + core cor, Zval =  6.0
     Generated using "atomic" code by A. Dal Corso v.6.3
     Shape of augmentation charge: PSQ
     Using radial grid of 1095 points,  4 beta functions with: 
                l(1) =   0
                l(2) =   0
                l(3) =   1
                l(4) =   1
     Q(r) pseudized with 0 coefficients 


     PseudoPot. # 3 for Li read from file:
     /home/mpicuntureo/pseudos/Li.pbesol-sl-kjpaw_psl.1.0.0.UPF
     MD5 check sum: eef8ea5bb9be16d4f57185b44daa939b
     Pseudo is Projector augmented-wave, Zval =  3.0
     Generated using "atomic" code by A. Dal Corso v.6.3
     Shape of augmentation charge: PSQ
     Using radial grid of 1017 points,  4 beta functions with: 
                l(1) =   0
                l(2) =   0
                l(3) =   1
                l(4) =   1
     Q(r) pseudized with 0 coefficients 


     vdW kernel table read from file vdW_kernel_table
     MD5 check sum: 8c4337f4b28e1601c069d7ef7b6561bc

     atomic species   valence    mass     pseudopotential
        V             13.00    50.94150     V ( 1.00)
        O              6.00    15.99940     O ( 1.00)
        Li             3.00     6.94100     Li( 1.00)

     No symmetry found



   Cartesian axes

     site n.     atom                  positions (alat units)
         1           V   tau(   1) = (   0.1250000   1.1799066  -0.0230308  )
         2           V   tau(   2) = (   0.3750000   0.1736394   1.4218137  )
         3           V   tau(   3) = (   0.3750000   0.8504123   0.6763606  )
         4           V   tau(   4) = (   0.1250000   0.5031336   0.7224223  )
         5           V   tau(   5) = (   0.1250000   0.7628632   1.2451682  )
         6           V   tau(   6) = (   0.3750000   0.5906827   0.1536147  )
         7           V   tau(   7) = (   0.3750000   1.2674557   0.5457767  )
         8           V   tau(   8) = (   0.1250000   0.0860903   0.8530062  )
         9           O   tau(   9) = (   0.1250000   1.0044151   1.1936654  )
        10           O   tau(  10) = (   0.3750000   0.3491309   0.2051175  )
        11           O   tau(  11) = (   0.3750000   1.0259038   0.4942739  )
        12           O   tau(  12) = (   0.1250000   0.3276421   0.9045090  )
        13           O   tau(  13) = (   0.1250000   1.3360801   1.0514365  )
        14           O   tau(  14) = (   0.3750000   0.0174659   0.3473464  )
        15           O   tau(  15) = (   0.3750000   0.6942389   0.3520450  )
        16           O   tau(  16) = (   0.1250000   0.6593071   1.0467378  )
        17           O   tau(  17) = (   0.1250000   1.0545013   0.1621290  )
        18           O   tau(  18) = (   0.3750000   0.2990447   1.2366539  )
        19           O   tau(  19) = (   0.3750000   0.9758176   0.8615204  )
        20           O   tau(  20) = (   0.1250000   0.3777283   0.5372625  )
        21           O   tau(  21) = (   0.1250000   0.0996943   0.0523127  )
        22           O   tau(  22) = (   0.3750000   1.2538517   1.3464702  )
        23           O   tau(  23) = (   0.3750000   0.5770787   0.7517041  )
        24           O   tau(  24) = (   0.1250000   0.7764672   0.6470788  )
        25           O   tau(  25) = (   0.1250000   1.2695330   0.6308963  )
        26           O   tau(  26) = (   0.3750000   0.0840130   0.7678866  )
        27           O   tau(  27) = (   0.3750000   0.7607859   1.3302877  )
        28           O   tau(  28) = (   0.1250000   0.5927600   0.0684952  )
        29           V   tau(  29) = (   0.6250000   1.1799066  -0.0230308  )
        30           V   tau(  30) = (   0.8750000   0.1736394   1.4218137  )
        31           V   tau(  31) = (   0.8750000   0.8504123   0.6763606  )
        32           V   tau(  32) = (   0.6250000   0.5031336   0.7224223  )
        33           V   tau(  33) = (   0.6250000   0.7628632   1.2451682  )
        34           V   tau(  34) = (   0.8750000   0.5906827   0.1536147  )
        35           V   tau(  35) = (   0.8750000   1.2674557   0.5457767  )
        36           V   tau(  36) = (   0.6250000   0.0860903   0.8530062  )
        37           O   tau(  37) = (   0.6250000   1.0044151   1.1936654  )
        38           O   tau(  38) = (   0.8750000   0.3491309   0.2051175  )
        39           O   tau(  39) = (   0.8750000   1.0259038   0.4942739  )
        40           O   tau(  40) = (   0.6250000   0.3276421   0.9045090  )
        41           O   tau(  41) = (   0.6250000   1.3360801   1.0514365  )
        42           O   tau(  42) = (   0.8750000   0.0174659   0.3473464  )
        43           O   tau(  43) = (   0.8750000   0.6942389   0.3520450  )
        44           O   tau(  44) = (   0.6250000   0.6593071   1.0467378  )
        45           O   tau(  45) = (   0.6250000   1.0545013   0.1621290  )
        46           O   tau(  46) = (   0.8750000   0.2990447   1.2366539  )
        47           O   tau(  47) = (   0.8750000   0.9758176   0.8615204  )
        48           O   tau(  48) = (   0.6250000   0.3777283   0.5372625  )
        49           O   tau(  49) = (   0.6250000   0.0996943   0.0523127  )
        50           O   tau(  50) = (   0.8750000   1.2538517   1.3464702  )
        51           O   tau(  51) = (   0.8750000   0.5770787   0.7517041  )
        52           O   tau(  52) = (   0.6250000   0.7764672   0.6470788  )
        53           O   tau(  53) = (   0.6250000   1.2695330   0.6308963  )
        54           O   tau(  54) = (   0.8750000   0.0840130   0.7678866  )
        55           O   tau(  55) = (   0.8750000   0.7607859   1.3302877  )
        56           O   tau(  56) = (   0.6250000   0.5927600   0.0684952  )
        57           Li  tau(  57) = (   0.1249268   0.2135622   0.3253326  )

     number of k points=     8  gaussian smearing, width (Ry)=  0.1000
                       cart. coord. in units 2pi/alat
        k(    1) = (   0.0000000   0.0000000   0.0000000), wk =   0.2500000
        k(    2) = (   0.0000000   0.0000000  -0.3574536), wk =   0.2500000
        k(    3) = (   0.0000000  -0.3694001   0.0000000), wk =   0.2500000
        k(    4) = (   0.0000000  -0.3694001  -0.3574536), wk =   0.2500000
        k(    5) = (  -0.5000000   0.0000000   0.0000000), wk =   0.2500000
        k(    6) = (  -0.5000000   0.0000000  -0.3574536), wk =   0.2500000
        k(    7) = (  -0.5000000  -0.3694001   0.0000000), wk =   0.2500000
        k(    8) = (  -0.5000000  -0.3694001  -0.3574536), wk =   0.2500000

     Dense  grid:   647119 G-vectors     FFT dimensions: (  90, 120, 125)

     Smooth grid:   163657 G-vectors     FFT dimensions: (  60,  75,  80)

     Estimated max dynamical RAM per process >     162.62 MB

     Estimated total dynamical RAM >       5.08 GB

     Check: negative core charge=   -0.000007

     Initial potential from superposition of free atoms

     starting charge  450.98163, renormalised to  451.00000


     %%%%%%%%%%%%%%%%%%%%%%%%%%%%%%%%%%%%%%%%%%%%%%%%%%%%%%%%%%%%%%%%%%%%%%%%
     %                                                                      %
     % You are using vdW-DF, which was implemented by the Thonhauser group. %
     % Please cite the following two papers that made this development      %
     % possible and the two reviews that describe the various versions:     %
     %                                                                      %
     %   T. Thonhauser et al., PRL 115, 136402 (2015).                      %
     %   T. Thonhauser et al., PRB 76, 125112 (2007).                       %
     %   K. Berland et al., Rep. Prog. Phys. 78, 066501 (2015).             %
     %   D.C. Langreth et al., J. Phys.: Condens. Matter 21, 084203 (2009). %
     %                                                                      %
     %                                                                      %
     % If you are calculating the stress with vdW-DF, please also cite:     %
     %                                                                      %
     %   R. Sabatini et al., J. Phys.: Condens. Matter 24, 424209 (2012).   %
     %                                                                      %
     %%%%%%%%%%%%%%%%%%%%%%%%%%%%%%%%%%%%%%%%%%%%%%%%%%%%%%%%%%%%%%%%%%%%%%%%


     Starting wfcs are  325 randomized atomic wfcs
     Checking if some PAW data can be deallocated... 

     total cpu time spent up to now is       22.9 secs

     Self-consistent Calculation

     iteration #  1     ecut=    40.00 Ry     beta= 0.40
     Davidson diagonalization with overlap
     ethr =  1.00E-02,  avg # of iterations =  2.0

     total cpu time spent up to now is       68.4 secs

     total energy              =   -5144.79236714 Ry
     Harris-Foulkes estimate   =   -5167.19048873 Ry
     estimated scf accuracy    <      39.11340227 Ry

     iteration #  2     ecut=    40.00 Ry     beta= 0.40
     Davidson diagonalization with overlap
     ethr =  8.67E-03,  avg # of iterations =  4.2

     total cpu time spent up to now is      156.3 secs

     total energy              =   -5127.19846463 Ry
     Harris-Foulkes estimate   =   -5184.96459557 Ry
     estimated scf accuracy    <     326.83245609 Ry

     iteration #  3     ecut=    40.00 Ry     beta= 0.40
     Davidson diagonalization with overlap
     ethr =  8.67E-03,  avg # of iterations =  5.0

     total cpu time spent up to now is      241.2 secs

     total energy              =   -5161.05031207 Ry
     Harris-Foulkes estimate   =   -5162.68318543 Ry
     estimated scf accuracy    <       9.89383913 Ry

     iteration #  4     ecut=    40.00 Ry     beta= 0.40
     Davidson diagonalization with overlap
     ethr =  2.19E-03,  avg # of iterations =  1.0

     total cpu time spent up to now is      283.1 secs

     total energy              =   -5161.01840566 Ry
     Harris-Foulkes estimate   =   -5161.54145171 Ry
     estimated scf accuracy    <       4.49454526 Ry

     iteration #  5     ecut=    40.00 Ry     beta= 0.40
     Davidson diagonalization with overlap
     ethr =  9.97E-04,  avg # of iterations =  1.8

     negative rho (up, down):  6.701E-06 0.000E+00

     total cpu time spent up to now is      325.7 secs

     total energy              =   -5160.92570567 Ry
     Harris-Foulkes estimate   =   -5161.27658490 Ry
     estimated scf accuracy    <       2.51156444 Ry

     iteration #  6     ecut=    40.00 Ry     beta= 0.40
     Davidson diagonalization with overlap
     ethr =  5.57E-04,  avg # of iterations =  4.4

     negative rho (up, down):  1.111E-04 0.000E+00

     total cpu time spent up to now is      373.0 secs

     total energy              =   -5161.06262493 Ry
     Harris-Foulkes estimate   =   -5161.15241004 Ry
     estimated scf accuracy    <       0.72084708 Ry

     iteration #  7     ecut=    40.00 Ry     beta= 0.40
     Davidson diagonalization with overlap
     ethr =  1.60E-04,  avg # of iterations =  5.4

     negative rho (up, down):  2.872E-04 0.000E+00

     total cpu time spent up to now is      458.7 secs

     total energy              =   -5161.22888049 Ry
     Harris-Foulkes estimate   =   -5161.30472934 Ry
     estimated scf accuracy    <       0.42153978 Ry

     iteration #  8     ecut=    40.00 Ry     beta= 0.40
     Davidson diagonalization with overlap
     ethr =  9.35E-05,  avg # of iterations =  1.0

     negative rho (up, down):  7.264E-04 0.000E+00

     total cpu time spent up to now is      500.3 secs

     total energy              =   -5161.23673148 Ry
     Harris-Foulkes estimate   =   -5161.25610350 Ry
     estimated scf accuracy    <       0.10434716 Ry

     iteration #  9     ecut=    40.00 Ry     beta= 0.40
     Davidson diagonalization with overlap
     ethr =  2.31E-05,  avg # of iterations =  5.8

     negative rho (up, down):  1.113E-03 0.000E+00

     total cpu time spent up to now is      587.9 secs

     total energy              =   -5161.26087292 Ry
     Harris-Foulkes estimate   =   -5161.29481158 Ry
     estimated scf accuracy    <       0.30127837 Ry

     iteration # 10     ecut=    40.00 Ry     beta= 0.40
     Davidson diagonalization with overlap
     ethr =  2.31E-05,  avg # of iterations =  5.9

     negative rho (up, down):  1.380E-03 0.000E+00

     total cpu time spent up to now is      637.9 secs

     total energy              =   -5161.24570203 Ry
     Harris-Foulkes estimate   =   -5161.27740679 Ry
     estimated scf accuracy    <       0.13608889 Ry

     iteration # 11     ecut=    40.00 Ry     beta= 0.40
     Davidson diagonalization with overlap
     ethr =  2.31E-05,  avg # of iterations =  7.6

     negative rho (up, down):  1.343E-03 0.000E+00

     total cpu time spent up to now is      698.5 secs

     total energy              =   -5161.26243759 Ry
     Harris-Foulkes estimate   =   -5161.26964054 Ry
     estimated scf accuracy    <       0.04808538 Ry

     iteration # 12     ecut=    40.00 Ry     beta= 0.40
     Davidson diagonalization with overlap
     c_bands:  1 eigenvalues not converged
     ethr =  1.07E-05,  avg # of iterations = 10.9

     negative rho (up, down):  1.514E-03 0.000E+00

     total cpu time spent up to now is      779.0 secs

     total energy              =   -5161.26064345 Ry
     Harris-Foulkes estimate   =   -5161.27674417 Ry
     estimated scf accuracy    <       0.10451803 Ry

     iteration # 13     ecut=    40.00 Ry     beta= 0.40
     Davidson diagonalization with overlap
     ethr =  1.07E-05,  avg # of iterations =  1.0

     negative rho (up, down):  1.604E-03 0.000E+00

     total cpu time spent up to now is      820.7 secs

     total energy              =   -5161.26254466 Ry
     Harris-Foulkes estimate   =   -5161.26568464 Ry
     estimated scf accuracy    <       0.02289523 Ry

     iteration # 14     ecut=    40.00 Ry     beta= 0.40
     Davidson diagonalization with overlap
     ethr =  5.08E-06,  avg # of iterations =  5.9

     negative rho (up, down):  1.786E-03 0.000E+00

     total cpu time spent up to now is      876.7 secs

     total energy              =   -5161.26556220 Ry
     Harris-Foulkes estimate   =   -5161.26599014 Ry
     estimated scf accuracy    <       0.00612055 Ry

     iteration # 15     ecut=    40.00 Ry     beta= 0.40
     Davidson diagonalization with overlap
     ethr =  1.36E-06,  avg # of iterations =  5.1

     negative rho (up, down):  1.855E-03 0.000E+00

     total cpu time spent up to now is      932.3 secs

     total energy              =   -5161.26649161 Ry
     Harris-Foulkes estimate   =   -5161.26669845 Ry
     estimated scf accuracy    <       0.00196579 Ry

     iteration # 16     ecut=    40.00 Ry     beta= 0.40
     Davidson diagonalization with overlap
     ethr =  4.36E-07,  avg # of iterations =  5.9

     negative rho (up, down):  1.866E-03 0.000E+00

     total cpu time spent up to now is      987.6 secs

     total energy              =   -5161.26666254 Ry
     Harris-Foulkes estimate   =   -5161.26689176 Ry
     estimated scf accuracy    <       0.00115278 Ry

     iteration # 17     ecut=    40.00 Ry     beta= 0.40
     Davidson diagonalization with overlap
     ethr =  2.56E-07,  avg # of iterations =  2.9

     negative rho (up, down):  1.883E-03 0.000E+00

     total cpu time spent up to now is     1032.6 secs

     total energy              =   -5161.26680235 Ry
     Harris-Foulkes estimate   =   -5161.26683427 Ry
     estimated scf accuracy    <       0.00022559 Ry

     iteration # 18     ecut=    40.00 Ry     beta= 0.40
     Davidson diagonalization with overlap
     ethr =  5.00E-08,  avg # of iterations =  5.5

     negative rho (up, down):  1.900E-03 0.000E+00

     total cpu time spent up to now is     1103.7 secs

     total energy              =   -5161.26686647 Ry
     Harris-Foulkes estimate   =   -5161.26687954 Ry
     estimated scf accuracy    <       0.00015816 Ry

     iteration # 19     ecut=    40.00 Ry     beta= 0.40
     Davidson diagonalization with overlap
     ethr =  3.51E-08,  avg # of iterations =  2.2

     negative rho (up, down):  1.901E-03 0.000E+00

     total cpu time spent up to now is     1147.1 secs

     total energy              =   -5161.26687586 Ry
     Harris-Foulkes estimate   =   -5161.26688489 Ry
     estimated scf accuracy    <       0.00003694 Ry

     iteration # 20     ecut=    40.00 Ry     beta= 0.40
     Davidson diagonalization with overlap
     ethr =  8.19E-09,  avg # of iterations =  5.8

     negative rho (up, down):  1.909E-03 0.000E+00

     total cpu time spent up to now is     1221.2 secs

     total energy              =   -5161.26688369 Ry
     Harris-Foulkes estimate   =   -5161.26689774 Ry
     estimated scf accuracy    <       0.00012172 Ry

     iteration # 21     ecut=    40.00 Ry     beta= 0.40
     Davidson diagonalization with overlap
     ethr =  8.19E-09,  avg # of iterations =  7.2

     negative rho (up, down):  1.915E-03 0.000E+00

     total cpu time spent up to now is     1275.1 secs

     total energy              =   -5161.26689387 Ry
     Harris-Foulkes estimate   =   -5161.26689558 Ry
     estimated scf accuracy    <       0.00002651 Ry

     iteration # 22     ecut=    40.00 Ry     beta= 0.40
     Davidson diagonalization with overlap
     ethr =  5.88E-09,  avg # of iterations =  6.0

     negative rho (up, down):  1.921E-03 0.000E+00

     total cpu time spent up to now is     1325.6 secs

     total energy              =   -5161.26689770 Ry
     Harris-Foulkes estimate   =   -5161.26689791 Ry
     estimated scf accuracy    <       0.00001174 Ry

     iteration # 23     ecut=    40.00 Ry     beta= 0.40
     Davidson diagonalization with overlap
     ethr =  2.60E-09,  avg # of iterations =  5.0

     negative rho (up, down):  1.919E-03 0.000E+00

     total cpu time spent up to now is     1374.5 secs

     total energy              =   -5161.26689854 Ry
     Harris-Foulkes estimate   =   -5161.26689918 Ry
     estimated scf accuracy    <       0.00000174 Ry

     iteration # 24     ecut=    40.00 Ry     beta= 0.40
     Davidson diagonalization with overlap
     ethr =  3.87E-10,  avg # of iterations =  5.2

     negative rho (up, down):  1.919E-03 0.000E+00

     total cpu time spent up to now is     1467.0 secs

     total energy              =   -5161.26689930 Ry
     Harris-Foulkes estimate   =   -5161.26690038 Ry
     estimated scf accuracy    <       0.00000660 Ry

     iteration # 25     ecut=    40.00 Ry     beta= 0.40
     Davidson diagonalization with overlap
     ethr =  3.87E-10,  avg # of iterations =  7.0

     negative rho (up, down):  1.920E-03 0.000E+00

     total cpu time spent up to now is     1530.2 secs

     total energy              =   -5161.26689980 Ry
     Harris-Foulkes estimate   =   -5161.26690015 Ry
     estimated scf accuracy    <       0.00000248 Ry

     iteration # 26     ecut=    40.00 Ry     beta= 0.40
     Davidson diagonalization with overlap
     ethr =  3.87E-10,  avg # of iterations =  1.8

     negative rho (up, down):  1.917E-03 0.000E+00

     total cpu time spent up to now is     1572.7 secs

     End of self-consistent calculation

          k = 0.0000 0.0000 0.0000 ( 20421 PWs)   bands (ev):

   -59.7298 -59.6496 -59.6475 -59.5753 -59.5729 -59.5689 -59.5665 -59.5340
   -59.5306 -59.5233 -59.5138 -59.5121 -59.5059 -59.5035 -59.5027 -59.5006
   -39.6330 -33.7651 -33.6858 -33.6812 -33.5714 -33.5644 -33.5521 -33.5475
   -33.5456 -33.5196 -33.5167 -33.5144 -33.5052 -33.5007 -33.4981 -33.4968
   -33.4793 -33.4676 -33.4562 -33.4553 -33.4519 -33.4426 -33.4424 -33.4356
   -33.4146 -33.3989 -33.3895 -33.3787 -33.3636 -33.3626 -33.3523 -33.3432
   -33.3357 -33.3293 -33.3286 -33.3286 -33.3163 -33.3153 -33.3080 -33.2993
   -33.2915 -33.2858 -33.2808 -33.2753 -33.2669 -33.2660 -33.2645 -33.2595
   -33.2524 -13.2670 -13.1783 -13.0565 -12.9681 -12.4011 -12.3429 -12.2998
   -12.2899 -12.2525 -12.2070 -12.1892 -12.0951 -12.0875 -12.0740 -12.0489
   -12.0353 -12.0010 -11.9439 -11.9434 -11.9070 -11.8735 -11.8583 -11.8570
   -11.8299 -11.7823 -11.6847 -11.6590 -11.4098 -11.3934 -11.3760 -11.3704
   -11.3657 -11.3164 -11.3115 -11.3045 -11.2905 -11.2747 -11.2541 -11.2464
   -11.2171  -0.2555  -0.1848  -0.1412  -0.1412  -0.0159   0.0388   0.0688
     0.1192   0.1371   0.1396   0.1969   0.2299   0.2517   0.2684   0.2741
     0.3309   0.3584   0.4317   0.4900   0.5667   0.6406   0.6472   0.7108
     0.7443   0.7544   0.7892   0.8306   0.9290   0.9517   0.9524   1.0326
     1.1041   1.1323   1.1415   1.1987   1.2067   1.2403   1.3042   1.3046
     1.3240   1.3760   1.3772   1.4756   1.5653   1.5675   1.6846   1.7566
     1.7569   1.7739   1.7813   1.8582   1.8942   1.9342   1.9938   2.0042
     2.0148   2.0796   2.0992   2.1243   2.2208   2.2339   2.3345   2.3775
     2.4149   2.4510   2.4656   2.4906   2.4940   2.5875   2.5942   2.6318
     2.6609   2.6636   2.6870   2.7450   2.7516   2.7682   2.7817   2.7860
     2.8465   2.8548   2.9251   2.9409   2.9935   3.0222   3.0475   3.0678
     3.1184   3.1525   3.1645   3.2363   3.3063   3.3317   3.3411   3.3953
     3.4392   3.4564   3.4776   3.4991   3.5276   3.5390   3.5407   3.5933
     3.6008   3.6253   3.6257   3.6513   3.7594   3.7746   3.8534   3.9317
     4.0209   4.0231   4.0656   4.1349   4.1367   4.1774   4.2338   4.2405
     4.2959   6.3574   6.4114   6.4718   6.5652   6.8319   6.8718   6.9201
     6.9732   7.3797   7.4242   7.4828   7.4879   7.5607   7.5926   7.6561
     7.7015   7.8004   7.8747   7.9160   7.9390   7.9503   7.9695   7.9862
     8.0234   8.0337   8.0903   8.0920   8.1403   8.1908   8.2514   8.4652
     8.4732   8.4887   8.5401   8.5439   8.5685   8.5984   8.6259   8.6815
     8.6866   8.7157   8.7717   8.7808   8.8207   8.8722   8.9441

          k = 0.0000 0.0000-0.3575 ( 20470 PWs)   bands (ev):

   -59.7298 -59.6496 -59.6475 -59.5753 -59.5729 -59.5689 -59.5665 -59.5341
   -59.5306 -59.5234 -59.5138 -59.5121 -59.5059 -59.5035 -59.5027 -59.5006
   -39.6330 -33.7654 -33.6861 -33.6814 -33.5715 -33.5648 -33.5530 -33.5478
   -33.5457 -33.5199 -33.5170 -33.5146 -33.5056 -33.5009 -33.4980 -33.4969
   -33.4795 -33.4679 -33.4568 -33.4553 -33.4522 -33.4429 -33.4426 -33.4359
   -33.4150 -33.3990 -33.3894 -33.3788 -33.3644 -33.3628 -33.3524 -33.3434
   -33.3362 -33.3294 -33.3290 -33.3288 -33.3168 -33.3155 -33.3083 -33.2995
   -33.2915 -33.2862 -33.2810 -33.2753 -33.2671 -33.2664 -33.2644 -33.2595
   -33.2523 -13.2330 -13.2140 -13.0469 -12.9814 -12.3999 -12.3400 -12.3025
   -12.2855 -12.2541 -12.2032 -12.1916 -12.0922 -12.0886 -12.0771 -12.0515
   -12.0231 -12.0104 -11.9439 -11.9433 -11.9031 -11.8794 -11.8584 -11.8580
   -11.8280 -11.7814 -11.6843 -11.6591 -11.4066 -11.3949 -11.3768 -11.3693
   -11.3634 -11.3162 -11.3132 -11.3037 -11.2889 -11.2714 -11.2480 -11.2459
   -11.2332  -0.2571  -0.1869  -0.1401  -0.1376  -0.0116   0.0391   0.0695
     0.1239   0.1388   0.1419   0.2056   0.2270   0.2327   0.2620   0.2969
     0.3504   0.3763   0.4237   0.4645   0.5799   0.6284   0.6695   0.6905
     0.7668   0.7965   0.8196   0.8268   0.9032   0.9215   0.9423   0.9590
     0.9947   1.0645   1.1262   1.1606   1.1892   1.2086   1.2600   1.2833
     1.3323   1.3892   1.4287   1.5953   1.6319   1.6875   1.6911   1.7281
     1.7364   1.8035   1.8382   1.8873   1.9391   1.9877   1.9911   2.0125
     2.0397   2.0721   2.1087   2.1504   2.2299   2.2516   2.2649   2.3614
     2.3874   2.4007   2.4612   2.5026   2.5311   2.5836   2.5913   2.6042
     2.6274   2.6693   2.6783   2.6895   2.7077   2.7182   2.7442   2.8142
     2.8237   2.8941   2.9300   2.9358   2.9841   3.0102   3.0294   3.1135
     3.1396   3.1884   3.1932   3.2723   3.2964   3.2986   3.3818   3.4128
     3.4289   3.4394   3.4514   3.5004   3.5172   3.5262   3.5340   3.5578
     3.6155   3.6409   3.6779   3.6789   3.7394   3.7755   3.8049   3.8509
     3.8961   3.9919   4.0342   4.1784   4.2032   4.2167   4.2640   4.2642
     4.3124   6.3546   6.3939   6.5073   6.5456   6.8513   6.8917   6.9002
     6.9503   7.4043   7.4558   7.4884   7.5003   7.5562   7.5764   7.6546
     7.6954   7.8086   7.8733   7.8863   7.9226   7.9357   7.9534   7.9800
     7.9938   8.0297   8.0977   8.1164   8.1752   8.1783   8.1790   8.4729
     8.4790   8.5253   8.5413   8.5513   8.5937   8.6151   8.6619   8.6626
     8.6900   8.7126   8.7765   8.7933   8.8565   8.8953   8.9216

          k = 0.0000-0.3694 0.0000 ( 20462 PWs)   bands (ev):

   -59.7298 -59.6496 -59.6475 -59.5753 -59.5729 -59.5689 -59.5665 -59.5340
   -59.5306 -59.5234 -59.5138 -59.5120 -59.5059 -59.5035 -59.5026 -59.5006
   -39.6330 -33.7651 -33.6859 -33.6811 -33.5710 -33.5642 -33.5533 -33.5497
   -33.5456 -33.5210 -33.5177 -33.5092 -33.5043 -33.5015 -33.4974 -33.4954
   -33.4754 -33.4704 -33.4571 -33.4556 -33.4533 -33.4422 -33.4416 -33.4289
   -33.4124 -33.3996 -33.3949 -33.3895 -33.3811 -33.3694 -33.3438 -33.3324
   -33.3311 -33.3306 -33.3295 -33.3228 -33.3140 -33.3101 -33.3043 -33.3014
   -33.2945 -33.2901 -33.2808 -33.2767 -33.2694 -33.2684 -33.2651 -33.2604
   -33.2531 -13.2161 -13.1535 -13.1200 -13.0117 -12.3890 -12.3290 -12.2898
   -12.2564 -12.2514 -12.2111 -12.1429 -12.1065 -12.1007 -12.0916 -12.0781
   -12.0636 -12.0109 -11.9324 -11.9320 -11.9175 -11.8832 -11.8521 -11.8463
   -11.8339 -11.7834 -11.6788 -11.6517 -11.4070 -11.3891 -11.3788 -11.3640
   -11.3409 -11.3283 -11.3171 -11.3101 -11.2946 -11.2729 -11.2529 -11.2467
   -11.2282  -0.2361  -0.1687  -0.1138  -0.1070  -0.0134   0.0367   0.0525
     0.0790   0.0869   0.0951   0.1991   0.2211   0.2242   0.2540   0.2637
     0.2693   0.4528   0.4909   0.5141   0.6121   0.6818   0.6886   0.7051
     0.7083   0.7222   0.8204   0.8410   0.8852   0.9322   0.9469   0.9524
     0.9932   1.0449   1.0511   1.0616   1.0934   1.2000   1.4035   1.4534
     1.4693   1.4882   1.5635   1.5916   1.6360   1.7190   1.7451   1.7544
     1.7888   1.7964   1.8774   1.8843   1.9218   1.9237   1.9623   1.9772
     1.9835   2.0321   2.0431   2.0460   2.0715   2.0806   2.1008   2.2314
     2.4188   2.4201   2.4800   2.5456   2.5627   2.5754   2.6172   2.6551
     2.6617   2.6840   2.7060   2.7216   2.7291   2.7580   2.7816   2.8362
     2.8411   2.8812   2.8824   2.8908   2.9137   2.9238   2.9316   3.1688
     3.2074   3.2305   3.2453   3.3224   3.3354   3.3584   3.3616   3.3876
     3.4602   3.4834   3.5061   3.5149   3.5439   3.5592   3.6015   3.6204
     3.6237   3.6528   3.6572   3.7193   3.7753   3.8305   3.8926   3.9251
     3.9529   3.9770   3.9947   4.0520   4.1088   4.1257   4.1609   4.2049
     4.2077   6.3923   6.4434   6.4525   6.5071   6.8195   6.8246   6.8407
     6.8894   7.4794   7.4930   7.5039   7.5211   7.5720   7.5944   7.6376
     7.6905   7.8180   7.9194   7.9589   7.9597   7.9715   7.9850   8.0029
     8.0127   8.0732   8.1736   8.1946   8.2145   8.2232   8.2608   8.3706
     8.3812   8.3924   8.4238   8.4579   8.4763   8.6372   8.6893   8.6900
     8.6988   8.7080   8.7515   8.8211   8.8618   8.8824   8.9024

          k = 0.0000-0.3694-0.3575 ( 20464 PWs)   bands (ev):

   -59.7298 -59.6496 -59.6475 -59.5753 -59.5729 -59.5690 -59.5665 -59.5340
   -59.5306 -59.5234 -59.5138 -59.5120 -59.5059 -59.5035 -59.5026 -59.5006
   -39.6330 -33.7653 -33.6864 -33.6808 -33.5716 -33.5641 -33.5540 -33.5497
   -33.5451 -33.5213 -33.5176 -33.5094 -33.5045 -33.5012 -33.4973 -33.4953
   -33.4753 -33.4708 -33.4571 -33.4553 -33.4535 -33.4424 -33.4416 -33.4294
   -33.4122 -33.3992 -33.3949 -33.3899 -33.3810 -33.3698 -33.3435 -33.3325
   -33.3314 -33.3305 -33.3292 -33.3232 -33.3139 -33.3101 -33.3039 -33.3017
   -33.2948 -33.2904 -33.2807 -33.2762 -33.2694 -33.2686 -33.2647 -33.2598
   -33.2527 -13.1905 -13.1656 -13.1241 -13.0262 -12.3885 -12.3290 -12.2886
   -12.2559 -12.2500 -12.2109 -12.1405 -12.1055 -12.0958 -12.0940 -12.0801
   -12.0642 -12.0137 -11.9322 -11.9318 -11.9179 -11.8838 -11.8519 -11.8459
   -11.8340 -11.7822 -11.6786 -11.6518 -11.4056 -11.3899 -11.3795 -11.3613
   -11.3414 -11.3262 -11.3167 -11.3060 -11.2857 -11.2814 -11.2491 -11.2459
   -11.2424  -0.2356  -0.1680  -0.1131  -0.1071  -0.0094   0.0375   0.0550
     0.0828   0.0888   0.0979   0.2020   0.2164   0.2266   0.2585   0.2863
     0.3212   0.4189   0.5019   0.5109   0.5272   0.5734   0.6965   0.7003
     0.7147   0.7331   0.8037   0.8260   0.8578   0.8914   0.9002   0.9815
     1.0510   1.0634   1.0930   1.1050   1.1192   1.2676   1.3525   1.4056
     1.4306   1.4650   1.4995   1.5212   1.5836   1.7183   1.8184   1.8363
     1.8499   1.8633   1.8671   1.9347   1.9371   1.9986   2.0115   2.0230
     2.0314   2.0450   2.0623   2.0937   2.1016   2.1145   2.1305   2.2397
     2.3520   2.3943   2.4596   2.4916   2.5240   2.5829   2.5853   2.6081
     2.6110   2.6396   2.6485   2.6835   2.7030   2.7475   2.7756   2.8144
     2.8237   2.8330   2.8357   2.8732   2.8858   2.9986   3.0259   3.1104
     3.1798   3.2365   3.2446   3.3350   3.3750   3.3784   3.3887   3.3963
     3.4205   3.4649   3.5164   3.5213   3.5284   3.5657   3.6162   3.6497
     3.6794   3.7120   3.7305   3.7395   3.7483   3.7967   3.8827   3.8932
     3.9259   3.9376   3.9547   4.0704   4.1295   4.1411   4.1645   4.2030
     4.2074   6.3946   6.4452   6.4503   6.5063   6.8262   6.8296   6.8456
     6.8947   7.4823   7.4999   7.5123   7.5274   7.5782   7.6005   7.6334
     7.6790   7.8102   7.9106   7.9488   7.9551   7.9640   7.9762   7.9836
     8.0086   8.0800   8.1776   8.1951   8.2089   8.2369   8.2773   8.3666
     8.3742   8.3943   8.4227   8.4510   8.4727   8.6431   8.6865   8.6918
     8.7157   8.7171   8.7737   8.7933   8.8367   8.8820   8.9051

          k =-0.5000 0.0000 0.0000 ( 20504 PWs)   bands (ev):

   -59.7298 -59.6486 -59.6485 -59.5743 -59.5741 -59.5678 -59.5677 -59.5340
   -59.5306 -59.5234 -59.5138 -59.5121 -59.5060 -59.5035 -59.5027 -59.5006
   -39.6330 -33.7656 -33.6842 -33.6840 -33.5691 -33.5681 -33.5511 -33.5483
   -33.5477 -33.5192 -33.5154 -33.5143 -33.5051 -33.5049 -33.5007 -33.4838
   -33.4796 -33.4666 -33.4578 -33.4525 -33.4491 -33.4399 -33.4354 -33.4297
   -33.4257 -33.3950 -33.3825 -33.3706 -33.3688 -33.3654 -33.3611 -33.3594
   -33.3383 -33.3354 -33.3275 -33.3241 -33.3157 -33.3032 -33.2961 -33.2946
   -33.2885 -33.2845 -33.2835 -33.2817 -33.2809 -33.2721 -33.2690 -33.2659
   -33.2599 -12.9911 -12.8991 -12.8940 -12.8197 -12.7758 -12.6586 -12.6564
   -12.6163 -12.2443 -12.2321 -12.0913 -12.0639 -12.0385 -12.0084 -11.9634
   -11.9615 -11.9472 -11.9075 -11.8968 -11.8966 -11.8885 -11.8780 -11.8683
   -11.8418 -11.7819 -11.6797 -11.6700 -11.4007 -11.3972 -11.3732 -11.3698
   -11.3487 -11.3391 -11.3125 -11.3074 -11.2878 -11.2822 -11.2644 -11.2320
   -11.2148  -0.4047  -0.3765  -0.3610  -0.3302  -0.3280  -0.2959  -0.2477
    -0.2434   0.2194   0.3617   0.3886   0.3957   0.4364   0.4408   0.4659
     0.5097   0.5119   0.5402   0.5654   0.5791   0.6355   0.6383   0.7638
     0.7971   0.7999   0.8298   0.8659   0.9007   1.0053   1.0189   1.0789
     1.1026   1.1162   1.1738   1.1859   1.2032   1.2319   1.2717   1.2853
     1.3102   1.3504   1.3778   1.4108   1.4943   1.4992   1.6251   1.7413
     1.8054   1.8108   1.8662   1.8947   1.9023   1.9060   1.9869   2.0020
     2.0268   2.1363   2.3188   2.3274   2.3502   2.3870   2.4110   2.4158
     2.4393   2.4486   2.4517   2.5200   2.5245   2.5329   2.5524   2.6063
     2.6114   2.6276   2.6327   2.6448   2.6623   2.7134   2.7179   2.8398
     2.8524   2.8697   2.9302   3.0279   3.0431   3.0518   3.0713   3.0828
     3.0992   3.1385   3.1432   3.1903   3.2054   3.3107   3.3328   3.3701
     3.3866   3.3986   3.4380   3.5031   3.5395   3.5422   3.6247   3.6738
     3.7157   3.7164   3.7641   3.8243   3.9157   3.9273   3.9840   3.9953
     4.0001   4.0614   4.0894   4.1263   4.1273   4.1549   4.1857   4.3259
     4.3501   6.6533   6.6672   6.6814   6.7020   6.7622   6.7875   6.7966
     6.8055   7.4948   7.5009   7.5356   7.5440   7.5746   7.5926   7.6172
     7.6317   7.7781   7.7797   7.8150   7.8367   7.8746   7.8761   7.9341
     7.9432   7.9581   7.9648   7.9926   7.9935   8.0142   8.0168   8.0786
     8.1115   8.2207   8.2285   8.2679   8.2770   8.2996   8.3296   8.3375
     8.3736   8.4173   8.4372   8.4690   8.4717   8.5866   8.6162

          k =-0.5000 0.0000-0.3575 ( 20444 PWs)   bands (ev):

   -59.7298 -59.6486 -59.6485 -59.5742 -59.5740 -59.5677 -59.5676 -59.5340
   -59.5306 -59.5234 -59.5138 -59.5121 -59.5060 -59.5035 -59.5027 -59.5006
   -39.6330 -33.7652 -33.6837 -33.6836 -33.5685 -33.5676 -33.5508 -33.5479
   -33.5468 -33.5188 -33.5149 -33.5142 -33.5051 -33.5043 -33.5001 -33.4835
   -33.4792 -33.4662 -33.4574 -33.4521 -33.4489 -33.4394 -33.4349 -33.4295
   -33.4255 -33.3947 -33.3823 -33.3705 -33.3688 -33.3652 -33.3609 -33.3591
   -33.3383 -33.3353 -33.3271 -33.3239 -33.3157 -33.3033 -33.2962 -33.2945
   -33.2881 -33.2840 -33.2834 -33.2816 -33.2811 -33.2718 -33.2688 -33.2654
   -33.2595 -12.9711 -12.9168 -12.8669 -12.8515 -12.7688 -12.6680 -12.6416
   -12.6377 -12.2412 -12.2272 -12.0902 -12.0638 -12.0387 -12.0081 -11.9635
   -11.9608 -11.9469 -11.9093 -11.8951 -11.8896 -11.8868 -11.8797 -11.8736
   -11.8465 -11.7790 -11.6782 -11.6689 -11.3980 -11.3893 -11.3793 -11.3671
   -11.3471 -11.3383 -11.3150 -11.2996 -11.2931 -11.2774 -11.2495 -11.2435
   -11.2315  -0.3945  -0.3695  -0.3683  -0.3267  -0.3252  -0.2986  -0.2509
    -0.2466   0.2199   0.3695   0.3773   0.3902   0.4194   0.4672   0.4806
     0.5101   0.5163   0.5511   0.5594   0.5957   0.6387   0.7492   0.7513
     0.7852   0.8047   0.8408   0.8519   0.9092   0.9093   0.9217   0.9350
     0.9679   1.1065   1.1200   1.1594   1.1639   1.2716   1.2973   1.3545
     1.3829   1.3948   1.4015   1.4261   1.4735   1.6039   1.7193   1.7318
     1.7907   1.8579   1.8748   1.9117   1.9434   1.9657   2.0851   2.0895
     2.1585   2.1650   2.2398   2.2906   2.3154   2.3414   2.3625   2.3899
     2.4250   2.4443   2.4570   2.4635   2.5018   2.5559   2.5672   2.5828
     2.5874   2.6123   2.6181   2.6589   2.6656   2.6971   2.7267   2.7422
     2.7519   2.8738   2.9415   2.9461   2.9602   3.0235   3.0459   3.0743
     3.1113   3.1813   3.2194   3.2701   3.2838   3.3488   3.4054   3.4253
     3.4261   3.4450   3.4670   3.4708   3.5179   3.5186   3.5519   3.5658
     3.6212   3.7324   3.8415   3.8534   3.8803   3.8940   3.9826   3.9911
     4.0078   4.0320   4.0460   4.0661   4.0841   4.2564   4.2751   4.3420
     4.3684   6.6630   6.6703   6.6707   6.6991   6.7612   6.7867   6.7895
     6.8097   7.4974   7.5028   7.5423   7.5478   7.5795   7.5972   7.6223
     7.6415   7.7703   7.7750   7.7920   7.7929   7.8545   7.8648   7.8940
     7.9014   7.9654   7.9854   8.0247   8.0392   8.0492   8.0792   8.0870
     8.0967   8.2213   8.2385   8.2704   8.2745   8.2825   8.3406   8.3415
     8.3721   8.4055   8.4233   8.4523   8.4554   8.6434   8.6794

          k =-0.5000-0.3694 0.0000 ( 20444 PWs)   bands (ev):

   -59.7298 -59.6486 -59.6485 -59.5742 -59.5740 -59.5678 -59.5676 -59.5340
   -59.5306 -59.5234 -59.5138 -59.5120 -59.5059 -59.5035 -59.5027 -59.5006
   -39.6330 -33.7650 -33.6835 -33.6834 -33.5681 -33.5673 -33.5514 -33.5492
   -33.5480 -33.5201 -33.5188 -33.5081 -33.5037 -33.5015 -33.4984 -33.4845
   -33.4742 -33.4709 -33.4573 -33.4522 -33.4496 -33.4346 -33.4327 -33.4286
   -33.4249 -33.4012 -33.3904 -33.3745 -33.3695 -33.3655 -33.3641 -33.3620
   -33.3345 -33.3299 -33.3264 -33.3182 -33.3082 -33.3005 -33.2936 -33.2925
   -33.2917 -33.2870 -33.2850 -33.2837 -33.2768 -33.2758 -33.2694 -33.2672
   -33.2610 -12.9514 -12.8722 -12.8456 -12.8329 -12.8150 -12.7019 -12.6985
   -12.6727 -12.2173 -12.1870 -12.0624 -12.0404 -11.9919 -11.9792 -11.9661
   -11.9539 -11.9464 -11.9389 -11.9091 -11.9077 -11.8986 -11.8978 -11.8877
   -11.8866 -11.7809 -11.6697 -11.6590 -11.3962 -11.3878 -11.3716 -11.3571
   -11.3444 -11.3400 -11.3236 -11.3126 -11.2922 -11.2841 -11.2528 -11.2389
   -11.2260  -0.4052  -0.3756  -0.3623  -0.3335  -0.3303  -0.3031  -0.2520
    -0.2459   0.2520   0.3605   0.3762   0.4062   0.4223   0.4379   0.4604
     0.4776   0.5390   0.5460   0.5752   0.6742   0.6811   0.7113   0.7433
     0.7856   0.8045   0.8277   0.8279   0.8719   0.9767   0.9809   1.0233
     1.0434   1.0833   1.0970   1.1528   1.1855   1.2516   1.3392   1.3449
     1.3618   1.3877   1.4192   1.4227   1.4316   1.4615   1.6417   1.6531
     1.6991   1.8126   1.9038   1.9092   1.9264   1.9840   1.9914   2.0306
     2.0647   2.2179   2.3181   2.3340   2.3571   2.3803   2.3912   2.3925
     2.4360   2.4615   2.4630   2.5230   2.5463   2.5544   2.5633   2.5858
     2.6050   2.6184   2.6504   2.6563   2.6598   2.7852   2.8096   2.8100
     2.8382   2.8703   2.9098   2.9255   2.9329   2.9759   3.0123   3.0240
     3.0271   3.0794   3.1545   3.1578   3.1729   3.3323   3.3995   3.4177
     3.4310   3.5008   3.5718   3.5887   3.6138   3.6687   3.7138   3.7322
     3.7634   3.7679   3.8020   3.8069   3.8267   3.8667   3.9476   3.9838
     4.0004   4.0453   4.0519   4.1110   4.1397   4.1461   4.1607   4.1755
     4.1940   6.6588   6.6708   6.6846   6.6952   6.7142   6.7560   6.7588
     6.7735   7.5106   7.5172   7.5600   7.5787   7.5847   7.6207   7.6323
     7.6441   7.7849   7.7965   7.8166   7.8578   7.8596   7.8792   7.9115
     7.9298   7.9333   7.9914   8.0203   8.0253   8.0941   8.1129   8.1493
     8.1506   8.1919   8.2005   8.2042   8.2115   8.2959   8.3281   8.3501
     8.3626   8.4210   8.4449   8.4762   8.4763   8.6612   8.6883

          k =-0.5000-0.3694-0.3575 ( 20448 PWs)   bands (ev):

   -59.7298 -59.6486 -59.6485 -59.5742 -59.5740 -59.5678 -59.5676 -59.5340
   -59.5306 -59.5234 -59.5138 -59.5120 -59.5059 -59.5035 -59.5027 -59.5006
   -39.6330 -33.7654 -33.6840 -33.6839 -33.5685 -33.5678 -33.5520 -33.5490
   -33.5483 -33.5205 -33.5192 -33.5085 -33.5043 -33.5016 -33.4985 -33.4843
   -33.4744 -33.4708 -33.4574 -33.4523 -33.4497 -33.4345 -33.4326 -33.4285
   -33.4248 -33.4013 -33.3905 -33.3743 -33.3693 -33.3655 -33.3642 -33.3622
   -33.3345 -33.3298 -33.3263 -33.3181 -33.3081 -33.3003 -33.2934 -33.2924
   -33.2918 -33.2869 -33.2847 -33.2834 -33.2765 -33.2756 -33.2692 -33.2672
   -33.2609 -12.9339 -12.8907 -12.8332 -12.8243 -12.8095 -12.7134 -12.7109
   -12.6849 -12.2171 -12.1848 -12.0587 -12.0422 -11.9903 -11.9742 -11.9691
   -11.9485 -11.9463 -11.9422 -11.9075 -11.9075 -11.9000 -11.8981 -11.8891
   -11.8856 -11.7797 -11.6692 -11.6590 -11.3973 -11.3856 -11.3702 -11.3546
   -11.3435 -11.3325 -11.3216 -11.3075 -11.2947 -11.2828 -11.2507 -11.2483
   -11.2401  -0.3944  -0.3723  -0.3692  -0.3292  -0.3252  -0.3060  -0.2564
    -0.2506   0.2694   0.3830   0.3856   0.4095   0.4449   0.4556   0.4719
     0.5272   0.5345   0.5645   0.5809   0.6097   0.6491   0.6572   0.6751
     0.6974   0.7757   0.7907   0.8334   0.8657   0.9122   0.9731   1.0060
     1.0136   1.1178   1.1585   1.2033   1.2045   1.2182   1.2293   1.2504
     1.2541   1.4464   1.5489   1.6176   1.6267   1.6621   1.6624   1.6875
     1.6975   1.7160   1.8709   1.9036   1.9201   2.0447   2.0803   2.1277
     2.1789   2.1945   2.2113   2.2432   2.2615   2.3061   2.3133   2.3612
     2.3674   2.3876   2.4574   2.4937   2.5763   2.5913   2.6077   2.6142
     2.6381   2.6431   2.6481   2.6665   2.6743   2.6968   2.6973   2.7360
     2.7404   2.8907   2.9301   2.9377   2.9631   2.9718   3.0113   3.0261
     3.0269   3.1739   3.2381   3.2718   3.2860   3.2987   3.3061   3.3213
     3.3391   3.5275   3.6030   3.6202   3.6408   3.6524   3.6768   3.6807
     3.6971   3.7142   3.8501   3.8607   3.8736   3.9461   3.9574   3.9614
     3.9762   4.0049   4.0394   4.0828   4.1044   4.1636   4.2035   4.2103
     4.2204   6.6652   6.6729   6.6804   6.6975   6.7167   6.7546   6.7556
     6.7718   7.5088   7.5150   7.5590   7.5777   7.5857   7.6242   7.6327
     7.6458   7.7784   7.7838   7.7971   7.8408   7.8543   7.8675   7.8935
     7.9021   7.9715   8.0343   8.0633   8.0880   8.0917   8.0959   8.1070
     8.1314   8.2092   8.2129   8.2261   8.2275   8.2901   8.3237   8.3433
     8.3623   8.3921   8.4198   8.4478   8.4510   8.6739   8.7038

     the Fermi energy is     5.6442 ev

!    total energy              =   -5161.26689968 Ry
     Harris-Foulkes estimate   =   -5161.26690001 Ry
     estimated scf accuracy    <       0.00000045 Ry

     total all-electron energy =    -36469.826641 Ry

     The total energy is the sum of the following terms:

     one-electron contribution =   -2181.31035805 Ry
     hartree contribution      =    1275.17130353 Ry
     xc contribution           =    -639.22978062 Ry
     ewald contribution        =   -2077.08616131 Ry
     one-center paw contrib.   =   -1538.14189932 Ry
     smearing contrib. (-TS)   =      -0.67000392 Ry

     convergence has been achieved in  26 iterations

     negative rho (up, down):  1.917E-03 0.000E+00

     Forces acting on atoms (cartesian axes, Ry/au):

     atom    1 type  1   force =    -0.00004973   -0.01612447   -0.00888876
     atom    2 type  1   force =     0.03278704   -0.00522087   -0.03586785
     atom    3 type  1   force =     0.00199358    0.00252020    0.00180426
     atom    4 type  1   force =    -0.00003214    0.02507777    0.04362584
     atom    5 type  1   force =    -0.00006235    0.00132366   -0.00228205
     atom    6 type  1   force =     0.00803217    0.02605408   -0.00576384
     atom    7 type  1   force =     0.01251317   -0.02681410    0.03007795
     atom    8 type  1   force =    -0.00004784   -0.00309564    0.01094965
     atom    9 type  2   force =    -0.00000722    0.00172675    0.00149904
     atom   10 type  2   force =    -0.01765304   -0.01613144    0.01400382
     atom   11 type  2   force =    -0.00034344    0.00642688   -0.00062751
     atom   12 type  2   force =    -0.00000622    0.00689885   -0.00513579
     atom   13 type  2   force =    -0.00000641    0.00047830   -0.00082408
     atom   14 type  2   force =    -0.01522266    0.02107347   -0.02047930
     atom   15 type  2   force =    -0.00135086   -0.00157673   -0.00212870
     atom   16 type  2   force =    -0.00000682   -0.00129854   -0.00211735
     atom   17 type  2   force =    -0.00001239    0.00076948    0.00029741
     atom   18 type  2   force =    -0.00047670   -0.00136514    0.00425519
     atom   19 type  2   force =    -0.00017248    0.00099826   -0.00047125
     atom   20 type  2   force =    -0.00001355   -0.02708296   -0.03322286
     atom   21 type  2   force =    -0.00000704    0.00974206    0.02572342
     atom   22 type  2   force =    -0.00288463    0.00519383    0.00128028
     atom   23 type  2   force =    -0.00685344   -0.00022395   -0.00047849
     atom   24 type  2   force =     0.00000295   -0.00623341    0.00050407
     atom   25 type  2   force =    -0.00000154    0.00428872   -0.00429586
     atom   26 type  2   force =    -0.00218301   -0.00101522   -0.00694133
     atom   27 type  2   force =    -0.00073347   -0.00094651    0.00406499
     atom   28 type  2   force =     0.00000093   -0.00476603    0.00170657
     atom   29 type  1   force =    -0.00004979   -0.00415833   -0.00271918
     atom   30 type  1   force =    -0.03270960   -0.00524076   -0.03591710
     atom   31 type  1   force =    -0.00190033    0.00251732    0.00180648
     atom   32 type  1   force =    -0.00003842   -0.00051747    0.00431140
     atom   33 type  1   force =    -0.00006186    0.00084697   -0.00189167
     atom   34 type  1   force =    -0.00793446    0.02609069   -0.00577606
     atom   35 type  1   force =    -0.01244283   -0.02685293    0.03011622
     atom   36 type  1   force =    -0.00005371    0.00076529    0.00400233
     atom   37 type  2   force =    -0.00000661    0.00064044    0.00012862
     atom   38 type  2   force =     0.01767175   -0.01614226    0.01401266
     atom   39 type  2   force =     0.00036235    0.00643326   -0.00062672
     atom   40 type  2   force =    -0.00000542    0.00023126   -0.00002785
     atom   41 type  2   force =    -0.00000655   -0.00034358   -0.00022951
     atom   42 type  2   force =     0.01524206    0.02108974   -0.02049924
     atom   43 type  2   force =     0.00137066   -0.00157918   -0.00213280
     atom   44 type  2   force =    -0.00000674   -0.00079360   -0.00060979
     atom   45 type  2   force =    -0.00001192   -0.00061243    0.00064404
     atom   46 type  2   force =     0.00050843   -0.00136227    0.00425535
     atom   47 type  2   force =     0.00020632    0.00099826   -0.00047159
     atom   48 type  2   force =    -0.00001127   -0.00315221   -0.00283571
     atom   49 type  2   force =     0.00000541    0.00114511    0.00136553
     atom   50 type  2   force =     0.00288556    0.00519448    0.00128061
     atom   51 type  2   force =     0.00685447   -0.00022414   -0.00047865
     atom   52 type  2   force =     0.00000297   -0.00236356   -0.00008862
     atom   53 type  2   force =     0.00000905   -0.00044088   -0.00038739
     atom   54 type  2   force =     0.00218037   -0.00101648   -0.00694631
     atom   55 type  2   force =     0.00073059   -0.00094725    0.00406667
     atom   56 type  2   force =     0.00000701   -0.00300224    0.00021037
     atom   57 type  3   force =    -0.00000035    0.00211944    0.00517044

     Total force =     0.141529     Total SCF correction =     0.002615

     BFGS Geometry Optimization

     number of scf cycles    =   1
     number of bfgs steps    =   0

     energy   new            =   -5161.2668996833 Ry

     new trust radius        =       0.0503200762 bohr
     new conv_thr            =       0.0000010000 Ry


ATOMIC_POSITIONS (angstrom)
V        0.901308254   8.499392027  -0.170771460
V        2.721353863   1.249294457  10.233258233
V        2.705058669   6.133381820   4.877972525
V        0.901317560   3.641204346   5.232239003
V        0.901301576   5.501460368   8.977297389
V        2.708254151   4.273009246   1.104615869
V        2.710625394   9.125023590   3.951336084
V        0.901309253   0.619130805   6.156545743
O        0.901330751   7.243425928   8.607928230
O        2.694662126   2.508933378   1.486446492
O        2.703821967   7.400861711   3.563717426
O        0.901331279   2.366171913   6.519403727
O        0.901331179   9.634294217   7.581132344
O        2.695948226   0.137092438   2.493765351
O        2.703288866   5.005097450   2.537356492
O        0.901330961   4.753362972   7.546567545
O        0.901328013   7.604074692   1.169216951
O        2.703751452   2.155592048   8.919363137
O        2.703912435   7.036833676   6.211895674
O        0.901327401   2.709344846   3.856445132
O        0.901330845   0.724018345   0.390821929
O        2.702477228   9.043867337   9.709638776
O        2.700377027   4.161009393   5.420041944
O        0.901336132   5.595555462   4.666142542
O        0.901333757   9.156461215   4.546915661
O        2.702848509   0.605252998   5.533308835
O        2.703615573   5.485280330   9.594425511
O        0.901335064   4.271678666   0.494799630
V        4.506646481   8.505724235  -0.167506658
V        6.292032803   1.249283931  10.233232167
V        6.308336370   6.133380300   4.877973697
V        4.506652501   3.627659925   5.211434695
V        4.506640094   5.501208116   8.977503974
V        6.305143244   4.273028618   1.104609402
V        6.302757520   9.125003042   3.951356336
V        4.506644409   0.621173926   6.152869380
O        4.506669332   7.242851076   8.607203030
O        6.318693470   2.508927655   1.486451169
O        6.309533730   7.400865087   3.563717842
O        4.506669959   2.362643576   6.522106733
O        4.506669366   9.633859298   7.581446977
O        6.317407730   0.137101052   2.493754798
O        6.310067300   5.005096154   2.537354320
O        4.506669265   4.753630175   7.547365315
O        4.506666521   7.603343414   1.169400380
O        6.309611029   2.155593566   8.919363222
O        6.309451162   7.036833678   6.211895497
O        4.506666865   2.722008451   3.872525319
O        4.506675692   0.719469036   0.377932288
O        6.310868952   9.043867679   9.709638951
O        6.312969209   4.161009291   5.420041861
O        4.506674399   5.597603297   4.665828907
O        4.506677617   9.153958414   4.548983933
O        6.310495782   0.605252331   5.533306203
O        6.309728592   5.485279937   9.594426398
O        4.506676537   4.272612024   0.494007871
Li       0.900806777   1.541049214   2.348604369



     Writing output data file liv2o5_gamma.save/
     NEW-OLD atomic charge density approx. for the potential

     Check: negative core charge=   -0.000007

     negative rho (up, down):  1.717E-03 0.000E+00

     total cpu time spent up to now is     1601.5 secs

     Self-consistent Calculation

     iteration #  1     ecut=    40.00 Ry     beta= 0.40
     Davidson diagonalization with overlap
     ethr =  1.00E-06,  avg # of iterations = 11.4

     negative rho (up, down):  1.775E-03 0.000E+00

     total cpu time spent up to now is     1738.3 secs

     total energy              =   -5161.26805843 Ry
     Harris-Foulkes estimate   =   -5161.30920071 Ry
     estimated scf accuracy    <       0.01255876 Ry

     iteration #  2     ecut=    40.00 Ry     beta= 0.40
     Davidson diagonalization with overlap
     ethr =  2.78E-06,  avg # of iterations =  6.9

     negative rho (up, down):  1.818E-03 0.000E+00

     total cpu time spent up to now is     1829.7 secs

     total energy              =   -5161.26253460 Ry
     Harris-Foulkes estimate   =   -5161.28154657 Ry
     estimated scf accuracy    <       0.12450961 Ry

     iteration #  3     ecut=    40.00 Ry     beta= 0.40
     Davidson diagonalization with overlap
     ethr =  2.78E-06,  avg # of iterations =  8.2

     negative rho (up, down):  1.851E-03 0.000E+00

     total cpu time spent up to now is     1915.8 secs

     total energy              =   -5161.27151562 Ry
     Harris-Foulkes estimate   =   -5161.27331026 Ry
     estimated scf accuracy    <       0.00928568 Ry

     iteration #  4     ecut=    40.00 Ry     beta= 0.40
     Davidson diagonalization with overlap
     ethr =  2.06E-06,  avg # of iterations =  2.0

     negative rho (up, down):  1.874E-03 0.000E+00

     total cpu time spent up to now is     1958.6 secs

     total energy              =   -5161.27288028 Ry
     Harris-Foulkes estimate   =   -5161.27312375 Ry
     estimated scf accuracy    <       0.00475859 Ry

     iteration #  5     ecut=    40.00 Ry     beta= 0.40
     Davidson diagonalization with overlap
     ethr =  1.06E-06,  avg # of iterations =  5.8

     negative rho (up, down):  1.917E-03 0.000E+00

     total cpu time spent up to now is     2008.3 secs

     total energy              =   -5161.27354920 Ry
     Harris-Foulkes estimate   =   -5161.27362947 Ry
     estimated scf accuracy    <       0.00160073 Ry

     iteration #  6     ecut=    40.00 Ry     beta= 0.40
     Davidson diagonalization with overlap
     ethr =  3.55E-07,  avg # of iterations =  2.4

     negative rho (up, down):  1.950E-03 0.000E+00

     total cpu time spent up to now is     2052.4 secs

     total energy              =   -5161.27379658 Ry
     Harris-Foulkes estimate   =   -5161.27377155 Ry
     estimated scf accuracy    <       0.00027704 Ry

     iteration #  7     ecut=    40.00 Ry     beta= 0.40
     Davidson diagonalization with overlap
     ethr =  6.14E-08,  avg # of iterations =  5.4

     negative rho (up, down):  1.976E-03 0.000E+00

     total cpu time spent up to now is     2121.3 secs

     total energy              =   -5161.27390531 Ry
     Harris-Foulkes estimate   =   -5161.27388763 Ry
     estimated scf accuracy    <       0.00025380 Ry

     iteration #  8     ecut=    40.00 Ry     beta= 0.40
     Davidson diagonalization with overlap
     ethr =  5.63E-08,  avg # of iterations =  2.2

     negative rho (up, down):  2.003E-03 0.000E+00

     total cpu time spent up to now is     2164.7 secs

     total energy              =   -5161.27402268 Ry
     Harris-Foulkes estimate   =   -5161.27392959 Ry
     estimated scf accuracy    <       0.00006054 Ry

     iteration #  9     ecut=    40.00 Ry     beta= 0.40
     Davidson diagonalization with overlap
     ethr =  1.34E-08,  avg # of iterations =  4.8

     negative rho (up, down):  2.020E-03 0.000E+00

     total cpu time spent up to now is     2230.4 secs

     total energy              =   -5161.27405593 Ry
     Harris-Foulkes estimate   =   -5161.27404322 Ry
     estimated scf accuracy    <       0.00007368 Ry

     iteration # 10     ecut=    40.00 Ry     beta= 0.40
     Davidson diagonalization with overlap
     ethr =  1.34E-08,  avg # of iterations =  6.5

     negative rho (up, down):  2.029E-03 0.000E+00

     total cpu time spent up to now is     2280.4 secs

     total energy              =   -5161.27406156 Ry
     Harris-Foulkes estimate   =   -5161.27406149 Ry
     estimated scf accuracy    <       0.00002722 Ry

     iteration # 11     ecut=    40.00 Ry     beta= 0.40
     Davidson diagonalization with overlap
     ethr =  6.04E-09,  avg # of iterations =  5.4

     negative rho (up, down):  2.038E-03 0.000E+00

     total cpu time spent up to now is     2335.6 secs

     total energy              =   -5161.27407170 Ry
     Harris-Foulkes estimate   =   -5161.27406629 Ry
     estimated scf accuracy    <       0.00000790 Ry

     iteration # 12     ecut=    40.00 Ry     beta= 0.40
     Davidson diagonalization with overlap
     ethr =  1.75E-09,  avg # of iterations =  5.8

     negative rho (up, down):  2.040E-03 0.000E+00

     total cpu time spent up to now is     2393.6 secs

     total energy              =   -5161.27407001 Ry
     Harris-Foulkes estimate   =   -5161.27407385 Ry
     estimated scf accuracy    <       0.00000733 Ry

     iteration # 13     ecut=    40.00 Ry     beta= 0.40
     Davidson diagonalization with overlap
     ethr =  1.63E-09,  avg # of iterations =  5.2

     negative rho (up, down):  2.046E-03 0.000E+00

     total cpu time spent up to now is     2442.7 secs

     total energy              =   -5161.27407418 Ry
     Harris-Foulkes estimate   =   -5161.27407166 Ry
     estimated scf accuracy    <       0.00001089 Ry

     iteration # 14     ecut=    40.00 Ry     beta= 0.40
     Davidson diagonalization with overlap
     ethr =  1.63E-09,  avg # of iterations =  1.9

     negative rho (up, down):  2.052E-03 0.000E+00

     total cpu time spent up to now is     2485.3 secs

     End of self-consistent calculation

          k = 0.0000 0.0000 0.0000 ( 20421 PWs)   bands (ev):

   -59.7224 -59.6473 -59.6452 -59.5723 -59.5693 -59.5592 -59.5561 -59.5495
   -59.5483 -59.5403 -59.5362 -59.5353 -59.5341 -59.5324 -59.5307 -59.5251
   -39.3042 -33.6495 -33.6042 -33.5982 -33.5874 -33.5792 -33.5726 -33.5715
   -33.5664 -33.5484 -33.5418 -33.5397 -33.5295 -33.5258 -33.5116 -33.5093
   -33.4991 -33.4937 -33.4861 -33.4793 -33.4716 -33.4667 -33.4262 -33.4231
   -33.4222 -33.4137 -33.3880 -33.3834 -33.3720 -33.3599 -33.3524 -33.3506
   -33.3498 -33.3414 -33.3398 -33.3382 -33.3314 -33.3262 -33.3249 -33.3208
   -33.3034 -33.2949 -33.2927 -33.2910 -33.2891 -33.2870 -33.2864 -33.2783
   -33.2743 -13.2687 -13.1861 -13.0447 -12.9910 -12.3367 -12.3273 -12.2766
   -12.2685 -12.2458 -12.2042 -12.1596 -12.1180 -12.1143 -12.1019 -12.0752
   -12.0485 -12.0067 -11.9876 -11.9438 -11.9261 -11.9128 -11.8959 -11.8924
   -11.8565 -11.5561 -11.5217 -11.4969 -11.4458 -11.4213 -11.4105 -11.4028
   -11.3982 -11.3623 -11.3471 -11.3352 -11.3126 -11.2926 -11.2828 -11.2757
   -11.2451  -0.2189  -0.1721  -0.1701  -0.1462  -0.0234   0.0099   0.0968
     0.1011   0.1069   0.1070   0.1919   0.2065   0.2465   0.2595   0.3087
     0.3358   0.3787   0.4002   0.5926   0.6131   0.6379   0.6380   0.6831
     0.7278   0.7774   0.8112   0.8572   0.9306   0.9634   0.9714   1.0589
     1.0713   1.1324   1.1604   1.1867   1.2096   1.2778   1.3182   1.3374
     1.3492   1.3558   1.3723   1.4866   1.5419   1.5594   1.7234   1.7483
     1.7890   1.8192   1.8261   1.8654   1.9163   1.9311   1.9934   2.0034
     2.0058   2.0689   2.1297   2.1445   2.2096   2.2439   2.3326   2.4349
     2.4463   2.4597   2.4634   2.4765   2.5641   2.5694   2.5876   2.6282
     2.6411   2.6618   2.6837   2.7357   2.7551   2.7626   2.7767   2.8067
     2.8363   2.8790   2.9134   2.9808   2.9909   3.0051   3.0679   3.0743
     3.1083   3.1534   3.1689   3.2512   3.3106   3.3385   3.3658   3.3945
     3.4076   3.4669   3.4671   3.4805   3.5220   3.5342   3.5377   3.5890
     3.5946   3.6007   3.6080   3.6289   3.7416   3.7696   3.8489   3.9233
     4.0102   4.0208   4.0662   4.1331   4.1451   4.1720   4.2177   4.2189
     4.2684   6.3532   6.4017   6.4614   6.5538   6.8328   6.8444   6.9420
     6.9433   7.3587   7.4003   7.4399   7.4683   7.5419   7.5707   7.6338
     7.6896   7.7245   7.8517   7.9138   7.9152   7.9360   7.9422   7.9863
     8.0255   8.0356   8.0634   8.0784   8.1298   8.1842   8.2555   8.4426
     8.4513   8.4547   8.5087   8.5252   8.5588   8.5783   8.6046   8.6147
     8.6800   8.6856   8.7123   8.7642   8.8361   8.8755   8.9312

          k = 0.0000 0.0000-0.3575 ( 20470 PWs)   bands (ev):

   -59.7224 -59.6473 -59.6452 -59.5723 -59.5693 -59.5592 -59.5562 -59.5495
   -59.5483 -59.5403 -59.5362 -59.5353 -59.5342 -59.5324 -59.5307 -59.5251
   -39.3042 -33.6499 -33.6046 -33.5985 -33.5875 -33.5795 -33.5737 -33.5716
   -33.5664 -33.5486 -33.5421 -33.5402 -33.5297 -33.5257 -33.5119 -33.5095
   -33.4993 -33.4939 -33.4867 -33.4794 -33.4718 -33.4668 -33.4267 -33.4234
   -33.4225 -33.4139 -33.3879 -33.3837 -33.3720 -33.3600 -33.3529 -33.3508
   -33.3506 -33.3417 -33.3402 -33.3385 -33.3316 -33.3264 -33.3252 -33.3211
   -33.3037 -33.2952 -33.2927 -33.2912 -33.2894 -33.2869 -33.2867 -33.2782
   -33.2742 -13.2389 -13.2149 -13.0318 -13.0102 -12.3335 -12.3245 -12.2784
   -12.2719 -12.2356 -12.2114 -12.1578 -12.1161 -12.1155 -12.1048 -12.0678
   -12.0544 -12.0072 -11.9871 -11.9383 -11.9257 -11.9206 -11.8960 -11.8922
   -11.8565 -11.5544 -11.5206 -11.4973 -11.4411 -11.4216 -11.4145 -11.3992
   -11.3984 -11.3616 -11.3520 -11.3343 -11.2995 -11.2920 -11.2871 -11.2698
   -11.2628  -0.2220  -0.1756  -0.1673  -0.1422  -0.0200   0.0125   0.0968
     0.1017   0.1103   0.1112   0.1961   0.2031   0.2401   0.2484   0.3177
     0.3542   0.3908   0.4179   0.5599   0.6020   0.6213   0.6746   0.7118
     0.7334   0.8074   0.8349   0.8631   0.8955   0.9446   0.9573   0.9649
     0.9901   1.0863   1.1002   1.1748   1.1942   1.2508   1.2648   1.2837
     1.3018   1.3916   1.4332   1.6217   1.6845   1.6906   1.6924   1.7122
     1.7582   1.8325   1.9110   1.9230   1.9317   1.9502   1.9776   2.0641
     2.0742   2.0762   2.0957   2.1740   2.2149   2.2248   2.2498   2.3959
     2.4182   2.4511   2.4879   2.5226   2.5563   2.5787   2.6002   2.6106
     2.6250   2.6498   2.6541   2.6560   2.6940   2.7020   2.7175   2.8108
     2.8276   2.9092   2.9209   2.9436   2.9811   3.0575   3.1118   3.1187
     3.1489   3.1559   3.1879   3.2705   3.2932   3.3491   3.3744   3.3919
     3.4270   3.4334   3.4395   3.5014   3.5080   3.5278   3.5321   3.5418
     3.5937   3.6279   3.6421   3.6792   3.7131   3.7704   3.7957   3.8533
     3.8748   3.9818   4.0362   4.1769   4.2090   4.2227   4.2405   4.2537
     4.2823   6.3521   6.3814   6.4997   6.5322   6.8467   6.8661   6.9174
     6.9287   7.3828   7.4306   7.4536   7.4736   7.5327   7.5627   7.6299
     7.6846   7.7195   7.8488   7.8947   7.9118   7.9149   7.9367   7.9622
     7.9870   8.0455   8.0700   8.0943   8.1524   8.1699   8.2038   8.4500
     8.4612   8.4854   8.5189   8.5247   8.5810   8.6017   8.6223   8.6427
     8.6548   8.6626   8.7261   8.8164   8.8681   8.8795   8.9003

          k = 0.0000-0.3694 0.0000 ( 20462 PWs)   bands (ev):

   -59.7224 -59.6473 -59.6452 -59.5722 -59.5693 -59.5594 -59.5561 -59.5494
   -59.5483 -59.5405 -59.5360 -59.5353 -59.5341 -59.5324 -59.5308 -59.5251
   -39.3042 -33.6496 -33.6041 -33.5981 -33.5863 -33.5790 -33.5748 -33.5742
   -33.5663 -33.5482 -33.5443 -33.5317 -33.5305 -33.5251 -33.5109 -33.5095
   -33.4977 -33.4929 -33.4857 -33.4810 -33.4759 -33.4663 -33.4227 -33.4208
   -33.4144 -33.4119 -33.3979 -33.3906 -33.3889 -33.3756 -33.3517 -33.3450
   -33.3384 -33.3377 -33.3352 -33.3301 -33.3293 -33.3270 -33.3179 -33.3170
   -33.3043 -33.3031 -33.2935 -33.2924 -33.2919 -33.2906 -33.2880 -33.2791
   -33.2751 -13.2183 -13.1713 -13.0891 -13.0428 -12.3070 -12.3037 -12.2881
   -12.2717 -12.1968 -12.1584 -12.1450 -12.1288 -12.1285 -12.1243 -12.1169
   -12.0964 -12.0076 -11.9827 -11.9502 -11.9283 -11.9153 -11.8900 -11.8806
   -11.8589 -11.5559 -11.5132 -11.4821 -11.4371 -11.4226 -11.4063 -11.4063
   -11.3805 -11.3651 -11.3596 -11.3477 -11.3142 -11.2937 -11.2830 -11.2694
   -11.2583  -0.1945  -0.1441  -0.1420  -0.1202  -0.0215   0.0120   0.0587
     0.0599   0.0609   0.0631   0.1832   0.2034   0.2325   0.2418   0.2665
     0.2896   0.4783   0.5041   0.6210   0.6414   0.6545   0.6585   0.6809
     0.6932   0.7977   0.8378   0.8540   0.9107   0.9193   0.9299   0.9896
     1.0003   1.0448   1.0505   1.0516   1.0713   1.2696   1.3864   1.4673
     1.5146   1.5349   1.5528   1.5808   1.6551   1.7346   1.7441   1.7670
     1.7787   1.8299   1.8765   1.9137   1.9193   1.9307   1.9423   1.9788
     1.9955   2.0374   2.0482   2.0565   2.0621   2.0762   2.1166   2.3003
     2.3985   2.4911   2.5232   2.5449   2.5618   2.5713   2.6045   2.6347
     2.6692   2.6719   2.6846   2.7086   2.7411   2.7425   2.7714   2.8536
     2.8751   2.8788   2.8861   2.8983   2.9127   2.9167   2.9613   3.1895
     3.2257   3.2318   3.2738   3.3006   3.3345   3.3483   3.3667   3.3817
     3.4393   3.4922   3.4937   3.5141   3.5381   3.5742   3.5937   3.6046
     3.6149   3.6225   3.6545   3.7217   3.7730   3.8264   3.8686   3.9396
     3.9560   3.9623   3.9649   4.0691   4.0827   4.1078   4.1573   4.1776
     4.1862   6.3894   6.4349   6.4422   6.4934   6.7984   6.8122   6.8613
     6.8631   7.4489   7.4522   7.4909   7.4981   7.5484   7.5784   7.6169
     7.6796   7.7271   7.9208   7.9311   7.9494   7.9543   7.9950   8.0041
     8.0214   8.0410   8.1613   8.1628   8.1790   8.2144   8.2689   8.3486
     8.3607   8.3715   8.4267   8.4430   8.4709   8.5872   8.6182   8.6675
     8.6763   8.6998   8.7133   8.8405   8.8537   8.8597   8.8810

          k = 0.0000-0.3694-0.3575 ( 20464 PWs)   bands (ev):

   -59.7224 -59.6473 -59.6452 -59.5722 -59.5693 -59.5594 -59.5561 -59.5494
   -59.5483 -59.5405 -59.5360 -59.5353 -59.5341 -59.5324 -59.5308 -59.5251
   -39.3042 -33.6498 -33.6049 -33.5978 -33.5870 -33.5789 -33.5757 -33.5739
   -33.5658 -33.5480 -33.5442 -33.5318 -33.5305 -33.5249 -33.5110 -33.5097
   -33.4977 -33.4931 -33.4856 -33.4808 -33.4760 -33.4663 -33.4225 -33.4208
   -33.4141 -33.4122 -33.3983 -33.3910 -33.3890 -33.3755 -33.3516 -33.3453
   -33.3382 -33.3377 -33.3353 -33.3301 -33.3295 -33.3267 -33.3179 -33.3175
   -33.3041 -33.3033 -33.2930 -33.2924 -33.2920 -33.2908 -33.2875 -33.2786
   -33.2746 -13.2062 -13.1598 -13.1027 -13.0576 -12.3062 -12.3028 -12.2877
   -12.2710 -12.1945 -12.1498 -12.1484 -12.1294 -12.1291 -12.1256 -12.1200
   -12.0962 -12.0082 -11.9827 -11.9507 -11.9288 -11.9151 -11.8898 -11.8806
   -11.8588 -11.5537 -11.5125 -11.4826 -11.4352 -11.4234 -11.4071 -11.4050
   -11.3809 -11.3642 -11.3574 -11.3469 -11.2990 -11.2939 -11.2927 -11.2706
   -11.2690  -0.1945  -0.1437  -0.1420  -0.1202  -0.0185   0.0153   0.0609
     0.0617   0.0641   0.0658   0.1833   0.1985   0.2339   0.2365   0.3144
     0.3301   0.4510   0.5167   0.5395   0.5715   0.6325   0.6557   0.6738
     0.6962   0.7994   0.8222   0.8538   0.8663   0.8807   0.8835   1.0000
     1.0406   1.0783   1.0925   1.1075   1.1169   1.3170   1.3557   1.3968
     1.4089   1.4954   1.5011   1.5624   1.5876   1.7765   1.8394   1.8562
     1.8687   1.8858   1.9078   1.9430   1.9455   1.9618   2.0234   2.0263
     2.0408   2.0434   2.0615   2.0934   2.1065   2.1129   2.1150   2.2394
     2.3858   2.4592   2.4836   2.5144   2.5522   2.5569   2.5706   2.5916
     2.6112   2.6240   2.6375   2.6581   2.6682   2.7761   2.7929   2.8075
     2.8125   2.8262   2.8347   2.8674   2.8795   3.0561   3.1033   3.1094
     3.1479   3.2100   3.2763   3.3208   3.3761   3.3849   3.4046   3.4145
     3.4363   3.4460   3.5071   3.5185   3.5239   3.5449   3.5959   3.6392
     3.6834   3.7139   3.7221   3.7273   3.7413   3.8101   3.8762   3.8951
     3.9110   3.9149   3.9170   4.0790   4.1087   4.1274   4.1645   4.1793
     4.1867   6.3920   6.4351   6.4416   6.4924   6.8052   6.8176   6.8664
     6.8687   7.4520   7.4601   7.4993   7.5017   7.5531   7.5846   7.6154
     7.6682   7.7181   7.9164   7.9182   7.9407   7.9482   7.9806   7.9974
     8.0167   8.0442   8.1531   8.1681   8.1906   8.2132   8.2920   8.3498
     8.3539   8.3676   8.4256   8.4401   8.4577   8.6009   8.6239   8.6638
     8.6825   8.6955   8.7284   8.8285   8.8450   8.8527   8.8814

          k =-0.5000 0.0000 0.0000 ( 20504 PWs)   bands (ev):

   -59.7224 -59.6463 -59.6462 -59.5709 -59.5707 -59.5578 -59.5576 -59.5495
   -59.5483 -59.5401 -59.5360 -59.5353 -59.5350 -59.5325 -59.5304 -59.5251
   -39.3042 -33.6500 -33.6024 -33.6017 -33.5842 -33.5841 -33.5716 -33.5704
   -33.5701 -33.5480 -33.5415 -33.5386 -33.5293 -33.5288 -33.5117 -33.4998
   -33.4993 -33.4956 -33.4855 -33.4756 -33.4741 -33.4478 -33.4418 -33.4268
   -33.4242 -33.3975 -33.3871 -33.3798 -33.3666 -33.3626 -33.3586 -33.3562
   -33.3519 -33.3432 -33.3414 -33.3349 -33.3329 -33.3208 -33.3143 -33.3133
   -33.3113 -33.3075 -33.3024 -33.2952 -33.2911 -33.2905 -33.2838 -33.2832
   -33.2831 -12.9497 -12.9287 -12.8690 -12.8550 -12.7331 -12.6947 -12.6782
   -12.6530 -12.1429 -12.1299 -12.0950 -12.0700 -12.0193 -12.0186 -12.0047
   -11.9919 -11.9683 -11.9493 -11.9415 -11.9295 -11.9188 -11.9080 -11.9014
   -11.8743 -11.5531 -11.5142 -11.5092 -11.4379 -11.4191 -11.4045 -11.3981
   -11.3936 -11.3818 -11.3505 -11.3364 -11.3124 -11.3118 -11.2774 -11.2659
   -11.2418  -0.4101  -0.4072  -0.3654  -0.3476  -0.3017  -0.2873  -0.2760
    -0.2760   0.2904   0.3478   0.3853   0.4332   0.4567   0.4929   0.4995
     0.5094   0.5247   0.5304   0.5450   0.5473   0.6441   0.6581   0.7708
     0.7748   0.8154   0.8461   0.8627   0.8899   1.0319   1.0414   1.0842
     1.0951   1.1280   1.1880   1.1902   1.2158   1.2225   1.2541   1.2909
     1.3110   1.3539   1.3743   1.4521   1.4946   1.5073   1.6055   1.7659
     1.8045   1.8294   1.8753   1.9002   1.9213   1.9242   1.9866   2.0064
     2.0341   2.1876   2.3321   2.3345   2.3998   2.4070   2.4095   2.4391
     2.4451   2.4656   2.4670   2.5131   2.5291   2.5486   2.5675   2.6100
     2.6162   2.6280   2.6306   2.6348   2.6420   2.7141   2.7177   2.8661
     2.8664   2.9076   2.9122   3.0456   3.0564   3.0604   3.0722   3.0772
     3.1218   3.1310   3.1530   3.1699   3.1871   3.3060   3.3285   3.3493
     3.3781   3.4041   3.4060   3.4999   3.5185   3.5591   3.5951   3.6783
     3.6903   3.7348   3.7481   3.8488   3.8917   3.9337   3.9537   3.9843
     3.9991   4.0536   4.0681   4.1140   4.1216   4.1453   4.1707   4.3196
     4.3244   6.6502   6.6696   6.6860   6.6994   6.7601   6.7652   6.7781
     6.7823   7.4443   7.4876   7.4931   7.5185   7.5698   7.5746   7.6132
     7.6149   7.7038   7.7355   7.7524   7.7598   7.8665   7.8777   7.9201
     7.9402   7.9415   7.9613   7.9752   7.9918   8.0076   8.0081   8.0797
     8.0958   8.1920   8.2027   8.2535   8.2638   8.2902   8.3310   8.3467
     8.3883   8.3899   8.4005   8.4675   8.4756   8.5599   8.5797

          k =-0.5000 0.0000-0.3575 ( 20444 PWs)   bands (ev):

   -59.7224 -59.6463 -59.6462 -59.5709 -59.5707 -59.5578 -59.5576 -59.5495
   -59.5483 -59.5401 -59.5359 -59.5352 -59.5349 -59.5324 -59.5304 -59.5251
   -39.3042 -33.6495 -33.6020 -33.6013 -33.5837 -33.5836 -33.5713 -33.5700
   -33.5693 -33.5474 -33.5409 -33.5385 -33.5298 -33.5276 -33.5112 -33.4993
   -33.4988 -33.4951 -33.4851 -33.4752 -33.4738 -33.4476 -33.4417 -33.4263
   -33.4237 -33.3973 -33.3868 -33.3795 -33.3664 -33.3624 -33.3585 -33.3561
   -33.3517 -33.3428 -33.3414 -33.3348 -33.3329 -33.3208 -33.3140 -33.3129
   -33.3116 -33.3076 -33.3026 -33.2949 -33.2909 -33.2903 -33.2834 -33.2826
   -33.2826 -12.9197 -12.9019 -12.8998 -12.8804 -12.7222 -12.6934 -12.6877
   -12.6665 -12.1311 -12.1192 -12.1033 -12.0776 -12.0186 -12.0182 -12.0053
   -11.9914 -11.9676 -11.9486 -11.9415 -11.9194 -11.9189 -11.9136 -11.9001
   -11.8824 -11.5510 -11.5109 -11.5060 -11.4318 -11.4197 -11.4001 -11.4001
   -11.3948 -11.3814 -11.3542 -11.3367 -11.3057 -11.2928 -11.2869 -11.2694
   -11.2602  -0.4044  -0.4025  -0.3622  -0.3436  -0.3043  -0.2892  -0.2804
    -0.2792   0.2968   0.3659   0.3688   0.4024   0.4569   0.4821   0.4930
     0.5096   0.5291   0.5507   0.5810   0.5898   0.6662   0.7562   0.7578
     0.7780   0.8288   0.8377   0.8689   0.8932   0.9084   0.9220   0.9358
     0.9557   1.1016   1.1266   1.1458   1.1693   1.3172   1.3198   1.3444
     1.3712   1.3837   1.4161   1.4258   1.4594   1.6634   1.7263   1.7511
     1.7692   1.8828   1.8835   1.9294   1.9412   1.9799   2.1078   2.1200
     2.1404   2.1904   2.2918   2.2964   2.3175   2.3921   2.4213   2.4274
     2.4296   2.4484   2.4581   2.4659   2.4764   2.5305   2.5479   2.5759
     2.5882   2.6143   2.6457   2.6591   2.6658   2.7071   2.7243   2.7300
     2.7505   2.9130   2.9283   2.9354   2.9549   3.0635   3.0700   3.0812
     3.0878   3.2166   3.2408   3.2507   3.2550   3.3632   3.3939   3.4092
     3.4246   3.4418   3.4460   3.4717   3.4875   3.5107   3.5271   3.5805
     3.5949   3.7976   3.8363   3.8509   3.8518   3.8837   3.9390   3.9909
     3.9919   4.0163   4.0319   4.0499   4.0646   4.2747   4.2777   4.3222
     4.3374   6.6598   6.6748   6.6753   6.6936   6.7598   6.7609   6.7802
     6.7811   7.4475   7.4936   7.4952   7.5242   7.5771   7.5780   7.6142
     7.6232   7.6982   7.7204   7.7339   7.7476   7.8531   7.8609   7.8805
     7.8884   7.9442   7.9946   8.0011   8.0082   8.0281   8.0645   8.0932
     8.1106   8.1904   8.2136   8.2341   8.2676   8.2832   8.3472   8.3568
     8.3670   8.3772   8.4002   8.4527   8.4546   8.6050   8.6335

          k =-0.5000-0.3694 0.0000 ( 20444 PWs)   bands (ev):

   -59.7224 -59.6463 -59.6462 -59.5709 -59.5706 -59.5578 -59.5578 -59.5493
   -59.5482 -59.5402 -59.5357 -59.5353 -59.5349 -59.5324 -59.5305 -59.5251
   -39.3042 -33.6495 -33.6016 -33.6008 -33.5829 -33.5825 -33.5737 -33.5715
   -33.5705 -33.5472 -33.5453 -33.5308 -33.5298 -33.5229 -33.5103 -33.5026
   -33.4971 -33.4948 -33.4854 -33.4765 -33.4755 -33.4471 -33.4411 -33.4180
   -33.4137 -33.4064 -33.4013 -33.3865 -33.3688 -33.3661 -33.3597 -33.3565
   -33.3526 -33.3434 -33.3309 -33.3257 -33.3220 -33.3213 -33.3148 -33.3132
   -33.3088 -33.3080 -33.3007 -33.2964 -33.2917 -33.2889 -33.2884 -33.2864
   -33.2851 -12.8999 -12.8820 -12.8479 -12.8466 -12.7903 -12.7376 -12.7296
   -12.7013 -12.0698 -12.0694 -12.0422 -12.0315 -12.0193 -12.0081 -12.0059
   -11.9914 -11.9787 -11.9761 -11.9566 -11.9454 -11.9357 -11.9347 -11.9239
   -11.9174 -11.5528 -11.4992 -11.4927 -11.4199 -11.4186 -11.4125 -11.4000
   -11.3901 -11.3713 -11.3623 -11.3523 -11.3131 -11.3069 -11.2740 -11.2679
   -11.2549  -0.4089  -0.4061  -0.3676  -0.3495  -0.3079  -0.2904  -0.2832
    -0.2805   0.3286   0.3815   0.3831   0.4253   0.4260   0.4613   0.4633
     0.4688   0.5484   0.5928   0.6006   0.6425   0.6695   0.7098   0.7366
     0.7540   0.8136   0.8301   0.8362   0.8591   0.9944   1.0051   1.0434
     1.0564   1.1023   1.1374   1.1517   1.1663   1.2648   1.3378   1.3390
     1.3552   1.3908   1.4062   1.4105   1.4390   1.5018   1.6434   1.6600
     1.6879   1.8553   1.9086   1.9154   1.9363   2.0237   2.0349   2.0391
     2.0528   2.2371   2.3438   2.3483   2.3854   2.3907   2.3980   2.4152
     2.4262   2.4631   2.5091   2.5329   2.5342   2.5563   2.5656   2.6034
     2.6079   2.6307   2.6419   2.6462   2.6467   2.7873   2.7936   2.8210
     2.8283   2.8903   2.9110   2.9176   2.9351   3.0007   3.0167   3.0274
     3.0310   3.1171   3.1316   3.1513   3.1576   3.3749   3.3992   3.4023
     3.4082   3.5055   3.5738   3.5764   3.5767   3.7043   3.7221   3.7260
     3.7535   3.7544   3.7783   3.7971   3.7989   3.8910   3.9448   3.9561
     3.9773   4.0545   4.0830   4.1029   4.1108   4.1271   4.1338   4.1486
     4.1600   6.6652   6.6724   6.6896   6.6910   6.7074   6.7290   6.7428
     6.7470   7.4559   7.5053   7.5382   7.5488   7.5792   7.5908   7.6207
     7.6250   7.7167   7.7421   7.7445   7.7865   7.8679   7.8871   7.9033
     7.9245   7.9304   7.9756   8.0025   8.0245   8.1015   8.1029   8.1130
     8.1549   8.1730   8.1828   8.1905   8.2130   8.2494   8.3226   8.3545
     8.3820   8.3882   8.4108   8.4754   8.4816   8.6300   8.6482

          k =-0.5000-0.3694-0.3575 ( 20448 PWs)   bands (ev):

   -59.7224 -59.6463 -59.6462 -59.5709 -59.5706 -59.5578 -59.5578 -59.5493
   -59.5483 -59.5402 -59.5357 -59.5353 -59.5349 -59.5324 -59.5305 -59.5251
   -39.3042 -33.6498 -33.6022 -33.6015 -33.5835 -33.5831 -33.5742 -33.5715
   -33.5708 -33.5474 -33.5456 -33.5312 -33.5302 -33.5230 -33.5105 -33.5026
   -33.4972 -33.4949 -33.4853 -33.4766 -33.4756 -33.4470 -33.4410 -33.4178
   -33.4135 -33.4065 -33.4015 -33.3865 -33.3689 -33.3661 -33.3597 -33.3565
   -33.3524 -33.3433 -33.3310 -33.3255 -33.3217 -33.3212 -33.3148 -33.3132
   -33.3086 -33.3076 -33.3006 -33.2962 -33.2916 -33.2889 -33.2882 -33.2862
   -33.2849 -12.8873 -12.8736 -12.8393 -12.8385 -12.8021 -12.7482 -12.7439
   -12.7119 -12.0682 -12.0677 -12.0400 -12.0316 -12.0158 -12.0076 -12.0037
   -11.9938 -11.9810 -11.9750 -11.9561 -11.9457 -11.9355 -11.9350 -11.9244
   -11.9169 -11.5502 -11.4990 -11.4921 -11.4206 -11.4154 -11.4093 -11.3970
   -11.3895 -11.3655 -11.3649 -11.3506 -11.3074 -11.2954 -11.2926 -11.2725
   -11.2665  -0.4045  -0.4022  -0.3623  -0.3436  -0.3116  -0.2933  -0.2885
    -0.2850   0.3543   0.3877   0.3910   0.4360   0.4704   0.4910   0.4987
     0.5010   0.5162   0.5782   0.6111   0.6259   0.6286   0.6579   0.6694
     0.6852   0.7931   0.8048   0.8324   0.8521   0.9360   0.9794   0.9978
     1.0099   1.1480   1.1492   1.1871   1.1994   1.2097   1.2227   1.2352
     1.2457   1.5372   1.5979   1.6263   1.6291   1.6485   1.6571   1.6756
     1.6779   1.7740   1.9093   1.9101   1.9249   2.0833   2.1469   2.1524
     2.1775   2.1923   2.2063   2.2259   2.2372   2.3048   2.3482   2.3521
     2.3638   2.4515   2.5017   2.5393   2.5873   2.6003   2.6084   2.6087
     2.6218   2.6394   2.6530   2.6544   2.6589   2.6799   2.6858   2.7147
     2.7191   2.9302   2.9448   2.9506   2.9510   2.9953   3.0007   3.0196
     3.0234   3.2343   3.2588   3.2656   3.2865   3.2905   3.2995   3.3106
     3.3201   3.5254   3.6135   3.6245   3.6302   3.6488   3.6543   3.6626
     3.6764   3.7531   3.8221   3.8515   3.8592   3.9336   3.9474   3.9484
     3.9648   4.0323   4.0508   4.0586   4.0650   4.1579   4.1828   4.1908
     4.1920   6.6735   6.6745   6.6860   6.6938   6.7098   6.7258   6.7387
     6.7453   7.4537   7.4978   7.5391   7.5485   7.5827   7.5943   7.6244
     7.6250   7.7096   7.7307   7.7329   7.7840   7.8624   7.8739   7.8883
     7.8937   7.9415   8.0008   8.0437   8.0746   8.0971   8.1018   8.1150
     8.1339   8.1700   8.1835   8.2197   8.2411   8.2444   8.3072   8.3377
     8.3694   8.3745   8.3952   8.4457   8.4565   8.6416   8.6622

     the Fermi energy is     5.6331 ev

!    total energy              =   -5161.27407449 Ry
     Harris-Foulkes estimate   =   -5161.27407503 Ry
     estimated scf accuracy    <       0.00000085 Ry

     total all-electron energy =    -36469.833815 Ry

     The total energy is the sum of the following terms:

     one-electron contribution =   -2178.56127150 Ry
     hartree contribution      =    1273.75276490 Ry
     xc contribution           =    -639.16611602 Ry
     ewald contribution        =   -2078.48370265 Ry
     one-center paw contrib.   =   -1538.14115514 Ry
     smearing contrib. (-TS)   =      -0.67459408 Ry

     convergence has been achieved in  14 iterations

     negative rho (up, down):  2.052E-03 0.000E+00

     Forces acting on atoms (cartesian axes, Ry/au):

[...]
     1.8111   1.8469   1.8646   1.8798   1.9235   1.9285   1.9763   1.9885
     2.0546   2.1674   2.2682   2.2854   2.3758   2.4051   2.4057   2.4471
     2.4491   2.4547   2.4993   2.5086   2.5281   2.5519   2.6008   2.6146
     2.6160   2.6461   2.6499   2.6550   2.6604   2.7332   2.7417   2.8516
     2.8728   2.8971   2.9003   3.0270   3.0341   3.0487   3.0618   3.0746
     3.1216   3.1392   3.1593   3.1862   3.1972   3.2880   3.3160   3.3407
     3.3541   3.3922   3.4124   3.4977   3.5178   3.5535   3.5811   3.6728
     3.6996   3.7380   3.7447   3.8584   3.8600   3.9201   3.9232   3.9879
     3.9969   4.0576   4.0620   4.0900   4.1112   4.1421   4.1537   4.3114
     4.3375   6.6508   6.6706   6.6879   6.6955   6.7504   6.7606   6.7808
     6.7849   7.3181   7.5034   7.5297   7.5514   7.5587   7.5724   7.6184
     7.6214   7.7254   7.7376   7.7649   7.8548   7.8879   7.9000   7.9074
     7.9122   7.9308   7.9309   7.9654   7.9822   7.9970   8.0090   8.0761
     8.0884   8.1901   8.2060   8.2528   8.2569   8.2841   8.3237   8.3415
     8.3695   8.3993   8.4188   8.4467   8.4979   8.5425   8.5687

          k =-0.5000 0.0000-0.3575 ( 20444 PWs)   bands (ev):

   -59.7041 -59.6262 -59.6258 -59.5821 -59.5820 -59.5728 -59.5646 -59.5641
   -59.5573 -59.5510 -59.5452 -59.5406 -59.5403 -59.5397 -59.5362 -59.5323
   -38.9527 -33.6719 -33.6200 -33.6194 -33.5874 -33.5874 -33.5863 -33.5605
   -33.5601 -33.5501 -33.5474 -33.5431 -33.5286 -33.5235 -33.5168 -33.5105
   -33.4975 -33.4922 -33.4641 -33.4539 -33.4524 -33.4365 -33.4349 -33.4266
   -33.4202 -33.4090 -33.3954 -33.3758 -33.3755 -33.3695 -33.3642 -33.3618
   -33.3572 -33.3491 -33.3452 -33.3439 -33.3379 -33.3371 -33.3235 -33.3173
   -33.3137 -33.3131 -33.3079 -33.3015 -33.3004 -33.2949 -33.2924 -33.2882
   -33.2851 -12.9267 -12.8985 -12.8761 -12.8707 -12.7262 -12.6889 -12.6549
   -12.6474 -12.1611 -12.1279 -12.0817 -12.0631 -12.0208 -12.0086 -11.9981
   -11.9825 -11.9740 -11.9692 -11.9217 -11.9124 -11.9008 -11.8977 -11.8792
   -11.8762 -11.6134 -11.5554 -11.5128 -11.4793 -11.4294 -11.4052 -11.4011
   -11.3938 -11.3797 -11.3501 -11.3416 -11.3152 -11.2968 -11.2864 -11.2812
   -11.2683  -0.3734  -0.3639  -0.3479  -0.3222  -0.2833  -0.2780  -0.2602
    -0.2429   0.2461   0.3754   0.3972   0.4135   0.4498   0.5014   0.5063
     0.5096   0.5317   0.5615   0.5813   0.5906   0.6395   0.7585   0.7655
     0.7867   0.8305   0.8472   0.8528   0.8924   0.9119   0.9297   0.9474
     0.9755   1.0915   1.0973   1.1671   1.1981   1.2662   1.3279   1.3553
     1.3664   1.3981   1.4035   1.4057   1.4860   1.6195   1.7192   1.7635
     1.7711   1.8642   1.8676   1.9058   1.9556   2.0093   2.1024   2.1025
     2.1747   2.1877   2.2902   2.3039   2.3284   2.3351   2.3419   2.3896
     2.4253   2.4372   2.4586   2.4724   2.4796   2.5312   2.5682   2.5888
     2.5933   2.6226   2.6790   2.6811   2.6970   2.7029   2.7268   2.7668
     2.7731   2.8796   2.9270   2.9347   2.9530   3.0579   3.0591   3.0928
     3.1111   3.2043   3.2210   3.2320   3.2395   3.3515   3.3588   3.4066
     3.4154   3.4184   3.4419   3.4621   3.4940   3.5188   3.5322   3.5941
     3.5974   3.7909   3.8125   3.8468   3.8473   3.9037   3.9086   3.9863
     4.0025   4.0142   4.0162   4.0542   4.0637   4.2366   4.2551   4.3221
     4.3513   6.6643   6.6737   6.6792   6.6855   6.7476   6.7619   6.7788
     6.7857   7.3203   7.5118   7.5387   7.5426   7.5762   7.5800   7.6198
     7.6199   7.7124   7.7234   7.7509   7.8438   7.8585   7.8684   7.8704
     7.8915   7.9284   7.9814   7.9876   8.0047   8.0071   8.0683   8.0768
     8.0982   8.1972   8.2094   8.2478   8.2510   8.2782   8.3277   8.3507
     8.3647   8.3919   8.4074   8.4354   8.4885   8.5869   8.6367

          k =-0.5000-0.3694 0.0000 ( 20444 PWs)   bands (ev):

   -59.7041 -59.6261 -59.6258 -59.5821 -59.5819 -59.5728 -59.5646 -59.5643
   -59.5571 -59.5510 -59.5451 -59.5407 -59.5402 -59.5398 -59.5362 -59.5324
   -38.9527 -33.6719 -33.6198 -33.6189 -33.5887 -33.5864 -33.5854 -33.5631
   -33.5625 -33.5501 -33.5482 -33.5427 -33.5231 -33.5189 -33.5155 -33.5097
   -33.4980 -33.4946 -33.4642 -33.4564 -33.4532 -33.4286 -33.4267 -33.4263
   -33.4189 -33.4152 -33.4112 -33.3862 -33.3765 -33.3745 -33.3666 -33.3615
   -33.3535 -33.3469 -33.3428 -33.3363 -33.3287 -33.3285 -33.3208 -33.3166
   -33.3149 -33.3100 -33.3096 -33.3014 -33.3012 -33.2989 -33.2987 -33.2888
   -33.2874 -12.8888 -12.8723 -12.8506 -12.8353 -12.7842 -12.7423 -12.6988
   -12.6868 -12.1015 -12.0805 -12.0246 -12.0219 -12.0163 -11.9959 -11.9813
   -11.9798 -11.9698 -11.9660 -11.9580 -11.9522 -11.9481 -11.9385 -11.9026
   -11.8833 -11.6138 -11.5460 -11.5000 -11.4637 -11.4173 -11.4135 -11.4043
   -11.3960 -11.3865 -11.3532 -11.3524 -11.3241 -11.3063 -11.2797 -11.2712
   -11.2662  -0.3778  -0.3671  -0.3501  -0.3299  -0.2870  -0.2828  -0.2640
    -0.2484   0.2807   0.3828   0.4250   0.4263   0.4339   0.4646   0.4894
     0.4905   0.5288   0.5881   0.6132   0.6410   0.6511   0.7015   0.7601
     0.7656   0.8153   0.8210   0.8352   0.8689   0.9886   0.9921   1.0273
     1.0748   1.0825   1.1260   1.1404   1.1896   1.2145   1.3329   1.3497
     1.3661   1.3663   1.4317   1.4324   1.4812   1.4951   1.6230   1.6604
     1.7181   1.8661   1.9148   1.9256   1.9283   2.0051   2.0062   2.0363
     2.0751   2.2273   2.3062   2.3544   2.3670   2.3898   2.4031   2.4078
     2.4348   2.4561   2.4874   2.5260   2.5286   2.5459   2.5766   2.6138
     2.6159   2.6366   2.6650   2.6704   2.6738   2.7684   2.7835   2.8186
     2.8323   2.8654   2.9086   2.9219   2.9495   2.9775   2.9885   3.0229
     3.0256   3.1212   3.1407   3.1617   3.1622   3.3642   3.3659   3.3905
     3.3930   3.4811   3.5301   3.5917   3.6142   3.6788   3.7027   3.7180
     3.7279   3.7617   3.7752   3.7897   3.8185   3.9148   3.9437   3.9600
     3.9702   3.9890   4.0702   4.1075   4.1247   4.1330   4.1416   4.1440
     4.1542   6.6706   6.6757   6.6838   6.7063   6.7156   6.7265   6.7305
     6.7351   7.3293   7.5497   7.5624   7.5758   7.5775   7.6046   7.6123
     7.6147   7.7287   7.7486   7.7700   7.8552   7.8867   7.8900   7.9016
     7.9182   7.9361   7.9667   7.9924   8.0089   8.0738   8.0812   8.1199
     8.1295   8.1616   8.1670   8.1930   8.1944   8.2664   8.3149   8.3580
     8.3642   8.4071   8.4080   8.4716   8.4948   8.6210   8.6606

          k =-0.5000-0.3694-0.3575 ( 20448 PWs)   bands (ev):

   -59.7041 -59.6261 -59.6258 -59.5821 -59.5819 -59.5728 -59.5646 -59.5643
   -59.5571 -59.5510 -59.5451 -59.5407 -59.5401 -59.5398 -59.5362 -59.5324
   -38.9527 -33.6721 -33.6202 -33.6196 -33.5890 -33.5871 -33.5860 -33.5636
   -33.5630 -33.5504 -33.5482 -33.5427 -33.5236 -33.5191 -33.5157 -33.5100
   -33.4981 -33.4946 -33.4639 -33.4564 -33.4534 -33.4284 -33.4266 -33.4264
   -33.4188 -33.4153 -33.4115 -33.3861 -33.3765 -33.3747 -33.3664 -33.3614
   -33.3534 -33.3469 -33.3426 -33.3361 -33.3287 -33.3283 -33.3207 -33.3167
   -33.3146 -33.3098 -33.3092 -33.3014 -33.3011 -33.2986 -33.2986 -33.2887
   -33.2873 -12.8724 -12.8663 -12.8400 -12.8278 -12.8029 -12.7544 -12.7080
   -12.6974 -12.0982 -12.0784 -12.0233 -12.0222 -12.0151 -11.9928 -11.9817
   -11.9803 -11.9697 -11.9640 -11.9593 -11.9531 -11.9483 -11.9390 -11.9025
   -11.8830 -11.6118 -11.5461 -11.4998 -11.4620 -11.4175 -11.4089 -11.4062
   -11.3975 -11.3784 -11.3533 -11.3497 -11.3154 -11.2997 -11.2891 -11.2839
   -11.2752  -0.3738  -0.3638  -0.3474  -0.3230  -0.2879  -0.2864  -0.2703
    -0.2515   0.3006   0.3919   0.4321   0.4433   0.4583   0.4926   0.5051
     0.5283   0.5315   0.5840   0.5878   0.6195   0.6359   0.6532   0.6625
     0.7049   0.7626   0.8053   0.8480   0.8782   0.9244   1.0016   1.0163
     1.0291   1.1088   1.1220   1.1601   1.2055   1.2183   1.2240   1.2546
     1.2788   1.5167   1.5893   1.6275   1.6283   1.6438   1.6534   1.6942
     1.6994   1.7394   1.9039   1.9150   1.9577   2.0854   2.1259   2.1324
     2.1635   2.1773   2.2182   2.2221   2.2492   2.2974   2.3105   2.3481
     2.3656   2.4356   2.4806   2.4894   2.5784   2.5843   2.6056   2.6243
     2.6358   2.6451   2.6553   2.6741   2.6803   2.6813   2.7203   2.7416
     2.7445   2.9032   2.9192   2.9496   2.9663   3.0036   3.0224   3.0240
     3.0282   3.1617   3.2345   3.2559   3.2873   3.2971   3.3063   3.3175
     3.3218   3.4720   3.5641   3.6276   3.6278   3.6603   3.6675   3.6779
     3.6779   3.7439   3.7678   3.8556   3.8885   3.9073   3.9403   3.9553
     3.9568   4.0010   4.0580   4.0686   4.0838   4.1489   4.1491   4.1916
     4.2100   6.6747   6.6865   6.6885   6.7034   6.7127   6.7216   6.7292
     6.7299   7.3289   7.5355   7.5641   7.5724   7.5872   7.6100   7.6127
     7.6176   7.7210   7.7380   7.7651   7.8442   7.8678   7.8702   7.8847
     7.9079   7.9599   7.9722   8.0486   8.0532   8.0751   8.0859   8.0993
     8.1136   8.1696   8.1700   8.2097   8.2176   8.2590   8.3121   8.3335
     8.3570   8.3985   8.3992   8.4378   8.4770   8.6223   8.6664

     the Fermi energy is     5.6299 ev

!    total energy              =   -5161.28832205 Ry
     Harris-Foulkes estimate   =   -5161.28832205 Ry
     estimated scf accuracy    <          7.9E-09 Ry

     total all-electron energy =    -36469.848063 Ry

     The total energy is the sum of the following terms:

     one-electron contribution =   -2179.04052305 Ry
     hartree contribution      =    1273.99514657 Ry
     xc contribution           =    -639.15417163 Ry
     ewald contribution        =   -2078.27599381 Ry
     one-center paw contrib.   =   -1538.13992344 Ry
     smearing contrib. (-TS)   =      -0.67285669 Ry

     convergence has been achieved in  13 iterations

     negative rho (up, down):  1.480E-03 0.000E+00

     Forces acting on atoms (cartesian axes, Ry/au):

     atom    1 type  1   force =     0.00000400   -0.00036380    0.00032708
     atom    2 type  1   force =    -0.00044381   -0.00016717   -0.00013860
     atom    3 type  1   force =    -0.00011194   -0.00029220   -0.00007034
     atom    4 type  1   force =     0.00000374    0.00040104   -0.00023137
     atom    5 type  1   force =    -0.00000209   -0.00022708   -0.00061384
     atom    6 type  1   force =    -0.00031688   -0.00001238    0.00109994
     atom    7 type  1   force =    -0.00033315   -0.00040519    0.00034371
     atom    8 type  1   force =     0.00000213    0.00034499    0.00045754
     atom    9 type  2   force =    -0.00000659   -0.00011585   -0.00024739
     atom   10 type  2   force =     0.00068645    0.00021958    0.00030159
     atom   11 type  2   force =     0.00006271   -0.00021631    0.00006216
     atom   12 type  2   force =    -0.00000373    0.00040743   -0.00003400
     atom   13 type  2   force =     0.00000129    0.00028598    0.00035817
     atom   14 type  2   force =    -0.00039585    0.00127954   -0.00045225
     atom   15 type  2   force =    -0.00013450    0.00065675    0.00014069
     atom   16 type  2   force =     0.00000248   -0.00079282    0.00031425
     atom   17 type  2   force =     0.00000286   -0.00083191    0.00002730
     atom   18 type  2   force =     0.00028790    0.00012893    0.00036236
     atom   19 type  2   force =     0.00036005   -0.00049925   -0.00016720
     atom   20 type  2   force =     0.00000163   -0.00014366   -0.00147712
     atom   21 type  2   force =    -0.00000319    0.00083187   -0.00021275
     atom   22 type  2   force =    -0.00018104    0.00072566   -0.00073175
     atom   23 type  2   force =     0.00038538    0.00006404   -0.00016729
     atom   24 type  2   force =     0.00000056    0.00011553   -0.00001378
     atom   25 type  2   force =     0.00000051    0.00030489    0.00101826
     atom   26 type  2   force =     0.00000831   -0.00123664   -0.00042440
     atom   27 type  2   force =     0.00012829    0.00003314   -0.00128347
     atom   28 type  2   force =     0.00000061   -0.00095951   -0.00048462
     atom   29 type  1   force =     0.00000605   -0.00035829   -0.00016189
     atom   30 type  1   force =     0.00042931   -0.00016263   -0.00013458
     atom   31 type  1   force =     0.00010583   -0.00029335   -0.00006751
     atom   32 type  1   force =     0.00000329    0.00036103   -0.00020521
     atom   33 type  1   force =     0.00000096   -0.00052101    0.00029497
     atom   34 type  1   force =     0.00031564   -0.00001170    0.00109536
     atom   35 type  1   force =     0.00033346   -0.00040825    0.00034455
     atom   36 type  1   force =     0.00000372   -0.00012760    0.00040781
     atom   37 type  2   force =    -0.00000275    0.00080626    0.00032025
     atom   38 type  2   force =    -0.00067832    0.00021980    0.00029978
     atom   39 type  2   force =    -0.00005192   -0.00021938    0.00006248
     atom   40 type  2   force =    -0.00000344   -0.00030001    0.00014718
     atom   41 type  2   force =     0.00000338   -0.00001045    0.00046315
     atom   42 type  2   force =     0.00039960    0.00127954   -0.00045049
     atom   43 type  2   force =     0.00012641    0.00066180    0.00013825
     atom   44 type  2   force =     0.00000504    0.00137462    0.00107434
     atom   45 type  2   force =    -0.00000422   -0.00065128    0.00052021
     atom   46 type  2   force =    -0.00028902    0.00013684    0.00036675
     atom   47 type  2   force =    -0.00035732   -0.00050384   -0.00016920
     atom   48 type  2   force =     0.00000052   -0.00097973   -0.00063942
     atom   49 type  2   force =    -0.00000360    0.00132616    0.00134164
     atom   50 type  2   force =     0.00018034    0.00072744   -0.00072748
     atom   51 type  2   force =    -0.00038462    0.00006278   -0.00016795
     atom   52 type  2   force =    -0.00000289   -0.00071245    0.00010439
     atom   53 type  2   force =    -0.00000058    0.00006652    0.00008709
     atom   54 type  2   force =    -0.00000735   -0.00123761   -0.00042637
     atom   55 type  2   force =    -0.00013249    0.00003637   -0.00128286
     atom   56 type  2   force =     0.00000107   -0.00010529   -0.00061633
     atom   57 type  3   force =    -0.00000220    0.00000810   -0.00008178

     Total force =     0.006386     Total SCF correction =     0.000291

     bfgs converged in  20 scf cycles and  19 bfgs steps
     (criteria: energy <  1.0E-04 Ry, force <  1.0E-02 Ry/Bohr)

     End of BFGS Geometry Optimization

     Final energy   =   -5161.2883220480 Ry
Begin final coordinates

ATOMIC_POSITIONS (angstrom)
V        0.901015018   8.522091957  -0.200003374
V        2.726671076   1.266007871  10.143911176
V        2.706919681   6.126367179   4.861680979
V        0.901293047   3.619647152   5.288618802
V        0.900983441   5.517667628   8.967815293
V        2.707357671   4.262245412   1.079039832
V        2.683216431   9.102596511   4.004469322
V        0.901193079   0.599687666   6.215195265
O        0.901257009   7.251319174   8.580389028
O        2.582721986   2.495015154   1.419555054
O        2.703432888   7.386168779   3.539375015
O        0.901393303   2.355324831   6.579012972
O        0.901172791   9.636013408   7.656693928
O        2.517096308   0.179661721   2.619072997
O        2.703218657   4.975109347   2.524613062
O        0.901038559   4.762752170   7.536349954
O        0.900958675   7.621481644   1.137087179
O        2.745366519   2.186901989   8.826614120
O        2.725943962   7.059237354   6.179605113
O        0.901260203   2.676676891   3.950069024
O        0.901316758   0.740430911   0.341867757
O        2.710677212   9.065597315   9.693078158
O        2.701809738   4.160973559   5.438057263
O        0.901538919   5.584259562   4.680608824
O        0.901397484   9.046522066   4.694762343
O        2.692860807   0.593089919   5.574059190
O        2.710835001   5.508654598   9.601876919
O        0.901318402   4.306019033   0.465523745
V        4.506362591   8.508080403  -0.178990627
V        6.286929612   1.265957612  10.143825921
V        6.307075491   6.126331260   4.861671389
V        4.506594240   3.620306979   5.207802637
V        4.506362656   5.494607570   8.966695455
V        6.306263154   4.262229869   1.079085133
V        6.330419192   9.102588755   4.004484138
V        4.506539578   0.617563243   6.162577605
O        4.506483529   7.240578541   8.603949125
O        6.430477335   2.494990118   1.419519843
O        6.310065163   7.386175972   3.539379253
O        4.506727374   2.357583596   6.520789157
O        4.506476227   9.632101634   7.595396631
O        6.496522860   0.179658866   2.619084363
O        6.310632322   4.975022049   2.524698681
O        4.506383754   4.752045132   7.534604325
O        4.506408043   7.625168233   1.168968135
O        6.268436044   2.186784132   8.826484741
O        6.288149123   7.059176419   6.179622331
O        4.506507561   2.717511890   3.869226106
O        4.506688307   0.749631654   0.385856088
O        6.302295246   9.065555928   9.692969273
O        6.311602806   4.160949584   5.438016101
O        4.506871198   5.579128448   4.644330119
O        4.506741326   9.168982950   4.543094695
O        6.320397773   0.593069503   5.574095056
O        6.302149210   5.508671677   9.601879129
O        4.506679990   4.217184646   0.467538638
Li       0.901243895   1.564264712   2.363002711
End final coordinates



     Writing output data file liv2o5_gamma.save/

     init_run     :     21.18s CPU     21.52s WALL (       1 calls)
     electrons    :  18926.37s CPU  19222.12s WALL (      20 calls)
     update_pot   :     25.44s CPU     26.51s WALL (      19 calls)
     forces       :    425.87s CPU    432.34s WALL (      20 calls)

     Called by init_run:
     wfcinit      :     19.11s CPU     19.23s WALL (       1 calls)
     potinit      :      0.69s CPU      0.76s WALL (       1 calls)
     hinit0       :      0.63s CPU      0.64s WALL (       1 calls)

     Called by electrons:
     c_bands      :  16803.60s CPU  17004.91s WALL (     327 calls)
     sum_band     :   1807.20s CPU   1845.36s WALL (     327 calls)
     v_of_rho     :     63.03s CPU     83.33s WALL (     339 calls)
     newd         :    204.23s CPU    241.63s WALL (     339 calls)
     PAW_pot      :     66.40s CPU     67.48s WALL (     358 calls)
     mix_rho      :      2.61s CPU      2.78s WALL (     327 calls)

     Called by c_bands:
     init_us_2    :     30.71s CPU     32.23s WALL (    5552 calls)
     cegterg      :  16738.67s CPU  16935.13s WALL (    2616 calls)

     Called by sum_band:
     sum_band:bec :      9.79s CPU      9.81s WALL (    2768 calls)
     addusdens    :    155.62s CPU    181.11s WALL (     327 calls)

     Called by *egterg:
     h_psi        :   7782.09s CPU   7841.74s WALL (   16334 calls)
     s_psi        :   3354.40s CPU   3364.24s WALL (   16334 calls)
     g_psi        :      4.83s CPU      4.86s WALL (   13710 calls)
     cdiaghg      :   3176.83s CPU   3246.80s WALL (   16110 calls)

     Called by h_psi:
     h_psi:pot    :   7773.86s CPU   7825.15s WALL (   16334 calls)
     h_psi:calbec :   3636.30s CPU   3660.03s WALL (   16334 calls)
     vloc_psi     :    516.84s CPU    534.65s WALL (   16334 calls)
     add_vuspsi   :   3620.57s CPU   3630.36s WALL (   16334 calls)

     General routines
     calbec       :   5579.06s CPU   5615.23s WALL (   19742 calls)
     fft          :     49.79s CPU     55.14s WALL (   22564 calls)
     ffts         :      0.60s CPU      0.65s WALL (     666 calls)
     fftw         :    577.73s CPU    596.27s WALL ( 4148360 calls)
     interpolate  :      1.01s CPU      1.08s WALL (     339 calls)

     Parallel routines
     fft_scatt_xy :     41.94s CPU     43.32s WALL ( 4171590 calls)
     fft_scatt_yz :    316.72s CPU    330.25s WALL ( 4171590 calls)

     PWSCF        :      5h25m CPU      5h30m WALL


   This run was terminated on:   1:34:52  20Oct2024            

=------------------------------------------------------------------------------=
   JOB DONE.
=------------------------------------------------------------------------------=
