
     Program PWSCF v.6.4.1 starts on 17May2024 at 20:24:35 

     This program is part of the open-source Quantum ESPRESSO suite
     for quantum simulation of materials; please cite
         "P. Giannozzi et al., J. Phys.:Condens. Matter 21 395502 (2009);
         "P. Giannozzi et al., J. Phys.:Condens. Matter 29 465901 (2017);
          URL http://www.quantum-espresso.org", 
     in publications or presentations arising from this work. More details at
     http://www.quantum-espresso.org/quote

     Parallel version (MPI), running on    32 processors

     MPI processes distributed on     1 nodes
     R & G space division:  proc/nbgrp/npool/nimage =      32
     Reading input from v2o5.vc-rlx.in

     Current dimensions of program PWSCF are:
     Max number of different atomic species (ntypx) = 10
     Max number of k-points (npk) =  40000
     Max angular momentum in pseudopotentials (lmaxx) =  3

     -------------------------------------------------
     Parameters for Dispersion (Grimme-D2) Correction:
     -------------------------------------------------
       atom      VdW radius       C_6     

        V          2.952        374.666
        O          2.536         24.284

     Subspace diagonalization in iterative solution of the eigenvalue problem:
     one sub-group per band group will be used
     ELPA distributed-memory algorithm (size of sub-group:  4*  4 procs)


     Parallelization info
     --------------------
     sticks:   dense  smooth     PW     G-vecs:    dense   smooth      PW
     Min          39      39     10                 3045     3045     430
     Max          40      40     11                 3054     3054     443
     Sum        1255    1255    349                97595    97595   14005



     bravais-lattice index     =            8
     lattice parameter (alat)  =       6.6827  a.u.
     unit-cell volume          =    1233.5773 (a.u.)^3
     number of atoms/cell      =           14
     number of atomic types    =            2
     number of electrons       =       112.00
     number of Kohn-Sham states=           56
     kinetic-energy cutoff     =      70.0000  Ry
     charge density cutoff     =     280.0000  Ry
     convergence threshold     =      1.0E-10
     mixing beta               =       0.7000
     number of iterations used =            8  plain     mixing
     Exchange-correlation      = PBE ( 1  4  3  4 0 0)
     nstep                     =          500


     celldm(1)=   6.682682  celldm(2)=   1.263659  celldm(3)=   3.271025
     celldm(4)=   0.000000  celldm(5)=   0.000000  celldm(6)=   0.000000

     crystal axes: (cart. coord. in units of alat)
               a(1) = (   1.000000   0.000000   0.000000 )  
               a(2) = (   0.000000   1.263659   0.000000 )  
               a(3) = (   0.000000   0.000000   3.271025 )  

     reciprocal axes: (cart. coord. in units 2 pi/alat)
               b(1) = (  1.000000  0.000000  0.000000 )  
               b(2) = (  0.000000  0.791352  0.000000 )  
               b(3) = (  0.000000  0.000000  0.305715 )  


     PseudoPot. # 1 for V  read from file:
     /home/mpicuntureo/pseudos/v.nc.upf
     MD5 check sum: 40fb93c06b4f9d8c28c5ccd071294a04
     Pseudo is Norm-conserving + core correction, Zval = 13.0
     Generated using ONCVPSP code by D. R. Hamann
     Using radial grid of 1536 points,  6 beta functions with: 
                l(1) =   0
                l(2) =   0
                l(3) =   1
                l(4) =   1
                l(5) =   2
                l(6) =   2

     PseudoPot. # 2 for O  read from file:
     /home/mpicuntureo/pseudos/o.nc.upf
     MD5 check sum: 3e3f909f7470e8921608ab6b1f57bbae
     Pseudo is Norm-conserving + core correction, Zval =  6.0
     Generated using ONCVPSP code by D. R. Hamann
     Using radial grid of  936 points,  5 beta functions with: 
                l(1) =   0
                l(2) =   0
                l(3) =   1
                l(4) =   1
                l(5) =   2

     atomic species   valence    mass     pseudopotential
        V             13.00    50.94150     V ( 1.00)
        O              6.00    15.99940     O ( 1.00)

      8 Sym. Ops., with inversion, found ( 4 have fractional translation)



   Cartesian axes

     site n.     atom                  positions (alat units)
         1           V   tau(   1) = (   0.0000000   0.4838420   2.1198804  )
         2           V   tau(   2) = (   0.5000000   0.7798175   2.7866567  )
         3           V   tau(   3) = (   0.5000000   0.7798175   0.4843680  )
         4           V   tau(   4) = (   0.0000000   0.4838420   1.1511443  )
         5           O   tau(   5) = (   0.5000000   0.6221939   2.2285187  )
         6           O   tau(   6) = (   0.0000000   0.6414656   2.6780184  )
         7           O   tau(   7) = (   0.0000000   0.6414656   0.5930063  )
         8           O   tau(   8) = (   0.5000000   0.6221939   1.0425060  )
         9           O   tau(   9) = (   0.0000000   0.0364742   1.1584929  )
        10           O   tau(  10) = (   0.5000000   1.2271853   0.4770194  )
        11           O   tau(  11) = (   0.5000000   1.2271853   2.7940053  )
        12           O   tau(  12) = (   0.5000000   0.6433842   0.0000000  )
        13           O   tau(  13) = (   0.0000000   0.6202753   1.6355124  )
        14           O   tau(  14) = (   0.0000000   0.0364742   2.1125318  )

     number of k points=     4
                       cart. coord. in units 2pi/alat
        k(    1) = (   0.0000000   0.0000000   0.0000000), wk =   0.2222222
        k(    2) = (   0.0000000   0.2637841   0.0000000), wk =   0.4444444
        k(    3) = (   0.3333333   0.0000000   0.0000000), wk =   0.4444444
        k(    4) = (   0.3333333   0.2637841   0.0000000), wk =   0.8888889

     Dense  grid:    97595 G-vectors     FFT dimensions: (  36,  45, 120)

     Estimated max dynamical RAM per process >      13.24 MB

     Estimated total dynamical RAM >     423.82 MB

     Check: negative core charge=   -0.000007

     Initial potential from superposition of free atoms

     starting charge  111.99579, renormalised to  112.00000
     Starting wfcs are   80 randomized atomic wfcs

     total cpu time spent up to now is        0.9 secs

     Self-consistent Calculation

     iteration #  1     ecut=    70.00 Ry     beta= 0.70
     Davidson diagonalization with overlap
     ethr =  1.00E-02,  avg # of iterations =  2.0

     total cpu time spent up to now is        1.3 secs

     total energy              =    -917.43744704 Ry
     Harris-Foulkes estimate   =    -923.60656034 Ry
     estimated scf accuracy    <       7.74556414 Ry

     iteration #  2     ecut=    70.00 Ry     beta= 0.70
     Davidson diagonalization with overlap
     ethr =  6.92E-03,  avg # of iterations =  6.2

     total cpu time spent up to now is        2.3 secs

     total energy              =    -908.09553312 Ry
     Harris-Foulkes estimate   =    -938.48707994 Ry
     estimated scf accuracy    <     136.03915014 Ry

     iteration #  3     ecut=    70.00 Ry     beta= 0.70
     Davidson diagonalization with overlap
     ethr =  6.92E-03,  avg # of iterations =  5.8

     total cpu time spent up to now is        3.2 secs

     total energy              =    -921.89703049 Ry
     Harris-Foulkes estimate   =    -922.66164283 Ry
     estimated scf accuracy    <       2.56167956 Ry

     iteration #  4     ecut=    70.00 Ry     beta= 0.70
     Davidson diagonalization with overlap
     ethr =  2.29E-03,  avg # of iterations =  3.8

     total cpu time spent up to now is        3.7 secs

     total energy              =    -922.04785480 Ry
     Harris-Foulkes estimate   =    -922.18048676 Ry
     estimated scf accuracy    <       0.85273493 Ry

     iteration #  5     ecut=    70.00 Ry     beta= 0.70
     Davidson diagonalization with overlap
     ethr =  7.61E-04,  avg # of iterations =  4.0

     total cpu time spent up to now is        4.1 secs

     total energy              =    -921.99485328 Ry
     Harris-Foulkes estimate   =    -922.11350208 Ry
     estimated scf accuracy    <       0.40839701 Ry

     iteration #  6     ecut=    70.00 Ry     beta= 0.70
     Davidson diagonalization with overlap
     ethr =  3.65E-04,  avg # of iterations =  4.0

     total cpu time spent up to now is        4.7 secs

     total energy              =    -922.11584807 Ry
     Harris-Foulkes estimate   =    -922.13121320 Ry
     estimated scf accuracy    <       0.16318337 Ry

     iteration #  7     ecut=    70.00 Ry     beta= 0.70
     Davidson diagonalization with overlap
     ethr =  1.46E-04,  avg # of iterations =  2.0

     total cpu time spent up to now is        5.1 secs

     total energy              =    -922.09333390 Ry
     Harris-Foulkes estimate   =    -922.11827083 Ry
     estimated scf accuracy    <       0.12297138 Ry

     iteration #  8     ecut=    70.00 Ry     beta= 0.70
     Davidson diagonalization with overlap
     ethr =  1.10E-04,  avg # of iterations =  3.5

     total cpu time spent up to now is        5.5 secs

     total energy              =    -922.10937550 Ry
     Harris-Foulkes estimate   =    -922.11033959 Ry
     estimated scf accuracy    <       0.00216920 Ry

     iteration #  9     ecut=    70.00 Ry     beta= 0.70
     Davidson diagonalization with overlap
     ethr =  1.94E-06,  avg # of iterations =  5.5

     total cpu time spent up to now is        6.4 secs

     total energy              =    -922.11143211 Ry
     Harris-Foulkes estimate   =    -922.11177998 Ry
     estimated scf accuracy    <       0.00159886 Ry

     iteration # 10     ecut=    70.00 Ry     beta= 0.70
     Davidson diagonalization with overlap
     ethr =  1.43E-06,  avg # of iterations =  4.0

     total cpu time spent up to now is        6.8 secs

     total energy              =    -922.11150672 Ry
     Harris-Foulkes estimate   =    -922.11162184 Ry
     estimated scf accuracy    <       0.00049293 Ry

     iteration # 11     ecut=    70.00 Ry     beta= 0.70
     Davidson diagonalization with overlap
     ethr =  4.40E-07,  avg # of iterations =  2.8

     total cpu time spent up to now is        7.2 secs

     total energy              =    -922.11150901 Ry
     Harris-Foulkes estimate   =    -922.11153801 Ry
     estimated scf accuracy    <       0.00011441 Ry

     iteration # 12     ecut=    70.00 Ry     beta= 0.70
     Davidson diagonalization with overlap
     ethr =  1.02E-07,  avg # of iterations =  4.0

     total cpu time spent up to now is        7.9 secs

     total energy              =    -922.11155638 Ry
     Harris-Foulkes estimate   =    -922.11156551 Ry
     estimated scf accuracy    <       0.00007791 Ry

     iteration # 13     ecut=    70.00 Ry     beta= 0.70
     Davidson diagonalization with overlap
     ethr =  6.96E-08,  avg # of iterations =  1.0

     total cpu time spent up to now is        8.2 secs

     total energy              =    -922.11155107 Ry
     Harris-Foulkes estimate   =    -922.11155721 Ry
     estimated scf accuracy    <       0.00005263 Ry

     iteration # 14     ecut=    70.00 Ry     beta= 0.70
     Davidson diagonalization with overlap
     ethr =  4.70E-08,  avg # of iterations =  2.0

     total cpu time spent up to now is        8.5 secs

     total energy              =    -922.11154971 Ry
     Harris-Foulkes estimate   =    -922.11155264 Ry
     estimated scf accuracy    <       0.00002774 Ry

     iteration # 15     ecut=    70.00 Ry     beta= 0.70
     Davidson diagonalization with overlap
     ethr =  2.48E-08,  avg # of iterations =  4.2

     total cpu time spent up to now is        9.1 secs

     total energy              =    -922.11155537 Ry
     Harris-Foulkes estimate   =    -922.11155539 Ry
     estimated scf accuracy    <       0.00000092 Ry

     iteration # 16     ecut=    70.00 Ry     beta= 0.70
     Davidson diagonalization with overlap
     ethr =  8.21E-10,  avg # of iterations =  5.0

     total cpu time spent up to now is        9.7 secs

     total energy              =    -922.11155574 Ry
     Harris-Foulkes estimate   =    -922.11155623 Ry
     estimated scf accuracy    <       0.00000329 Ry

     iteration # 17     ecut=    70.00 Ry     beta= 0.70
     Davidson diagonalization with overlap
     ethr =  8.21E-10,  avg # of iterations =  3.8

     total cpu time spent up to now is       10.1 secs

     total energy              =    -922.11155570 Ry
     Harris-Foulkes estimate   =    -922.11155583 Ry
     estimated scf accuracy    <       0.00000116 Ry

     iteration # 18     ecut=    70.00 Ry     beta= 0.70
     Davidson diagonalization with overlap
     ethr =  8.21E-10,  avg # of iterations =  2.5

     total cpu time spent up to now is       10.5 secs

     total energy              =    -922.11155569 Ry
     Harris-Foulkes estimate   =    -922.11155575 Ry
     estimated scf accuracy    <       0.00000048 Ry

     iteration # 19     ecut=    70.00 Ry     beta= 0.70
     Davidson diagonalization with overlap
     ethr =  4.28E-10,  avg # of iterations =  4.2

     total cpu time spent up to now is       11.1 secs

     total energy              =    -922.11155577 Ry
     Harris-Foulkes estimate   =    -922.11155578 Ry
     estimated scf accuracy    <       0.00000002 Ry

     iteration # 20     ecut=    70.00 Ry     beta= 0.70
     Davidson diagonalization with overlap
     ethr =  1.63E-11,  avg # of iterations =  5.0

     total cpu time spent up to now is       11.7 secs

     total energy              =    -922.11155579 Ry
     Harris-Foulkes estimate   =    -922.11155579 Ry
     estimated scf accuracy    <       0.00000003 Ry

     iteration # 21     ecut=    70.00 Ry     beta= 0.70
     Davidson diagonalization with overlap
     ethr =  1.63E-11,  avg # of iterations =  1.0

     total cpu time spent up to now is       12.0 secs

     total energy              =    -922.11155578 Ry
     Harris-Foulkes estimate   =    -922.11155579 Ry
     estimated scf accuracy    <       0.00000003 Ry

     iteration # 22     ecut=    70.00 Ry     beta= 0.70
     Davidson diagonalization with overlap
     ethr =  1.63E-11,  avg # of iterations =  1.0

     total cpu time spent up to now is       12.4 secs

     total energy              =    -922.11155578 Ry
     Harris-Foulkes estimate   =    -922.11155578 Ry
     estimated scf accuracy    <       0.00000002 Ry

     iteration # 23     ecut=    70.00 Ry     beta= 0.70
     Davidson diagonalization with overlap
     ethr =  1.63E-11,  avg # of iterations =  4.0

     total cpu time spent up to now is       13.2 secs

     total energy              =    -922.11155578 Ry
     Harris-Foulkes estimate   =    -922.11155578 Ry
     estimated scf accuracy    <       0.00000001 Ry

     iteration # 24     ecut=    70.00 Ry     beta= 0.70
     Davidson diagonalization with overlap
     ethr =  1.28E-11,  avg # of iterations =  1.0

     total cpu time spent up to now is       13.7 secs

     total energy              =    -922.11155578 Ry
     Harris-Foulkes estimate   =    -922.11155578 Ry
     estimated scf accuracy    <       0.00000001 Ry

     iteration # 25     ecut=    70.00 Ry     beta= 0.70
     Davidson diagonalization with overlap
     ethr =  1.02E-11,  avg # of iterations =  1.0

     total cpu time spent up to now is       14.2 secs

     total energy              =    -922.11155578 Ry
     Harris-Foulkes estimate   =    -922.11155578 Ry
     estimated scf accuracy    <          9.8E-09 Ry

     iteration # 26     ecut=    70.00 Ry     beta= 0.70
     Davidson diagonalization with overlap
     ethr =  8.79E-12,  avg # of iterations =  4.0

     total cpu time spent up to now is       14.8 secs

     total energy              =    -922.11155578 Ry
     Harris-Foulkes estimate   =    -922.11155578 Ry
     estimated scf accuracy    <          1.9E-09 Ry

     iteration # 27     ecut=    70.00 Ry     beta= 0.70
     Davidson diagonalization with overlap
     ethr =  1.74E-12,  avg # of iterations =  4.2

     total cpu time spent up to now is       15.6 secs

     total energy              =    -922.11155578 Ry
     Harris-Foulkes estimate   =    -922.11155578 Ry
     estimated scf accuracy    <          4.5E-10 Ry

     iteration # 28     ecut=    70.00 Ry     beta= 0.70
     Davidson diagonalization with overlap
     ethr =  4.06E-13,  avg # of iterations =  3.8

     total cpu time spent up to now is       16.2 secs

     total energy              =    -922.11155578 Ry
     Harris-Foulkes estimate   =    -922.11155578 Ry
     estimated scf accuracy    <          3.9E-10 Ry

     iteration # 29     ecut=    70.00 Ry     beta= 0.70
     Davidson diagonalization with overlap
     ethr =  3.48E-13,  avg # of iterations =  1.0

     total cpu time spent up to now is       16.7 secs

     total energy              =    -922.11155578 Ry
     Harris-Foulkes estimate   =    -922.11155578 Ry
     estimated scf accuracy    <          3.3E-10 Ry

     iteration # 30     ecut=    70.00 Ry     beta= 0.70
     Davidson diagonalization with overlap
     ethr =  2.97E-13,  avg # of iterations =  4.0

     total cpu time spent up to now is       17.5 secs

     total energy              =    -922.11155578 Ry
     Harris-Foulkes estimate   =    -922.11155578 Ry
     estimated scf accuracy    <          3.1E-10 Ry

     iteration # 31     ecut=    70.00 Ry     beta= 0.70
     Davidson diagonalization with overlap
     ethr =  2.77E-13,  avg # of iterations =  1.0

     total cpu time spent up to now is       18.0 secs

     total energy              =    -922.11155578 Ry
     Harris-Foulkes estimate   =    -922.11155578 Ry
     estimated scf accuracy    <          2.5E-10 Ry

     iteration # 32     ecut=    70.00 Ry     beta= 0.70
     Davidson diagonalization with overlap
     ethr =  2.27E-13,  avg # of iterations =  3.0

     total cpu time spent up to now is       18.6 secs

     End of self-consistent calculation

          k = 0.0000 0.0000 0.0000 ( 12161 PWs)   bands (ev):

   -59.9715 -59.9693 -59.9607 -59.9585 -34.0093 -34.0070 -34.0002 -33.9946
   -33.9154 -33.8621 -33.8356 -33.8058 -33.8033 -33.7848 -33.7715 -33.7690
   -13.5421 -13.4187 -12.4528 -12.3260 -12.2411 -12.1993 -11.8170 -11.8127
   -11.6542 -11.6341  -0.4156  -0.4025  -0.3582  -0.2465  -0.0700   0.3657
     1.0613   1.1088   1.3404   1.3447   1.5776   1.6157   1.8688   1.8703
     1.9087   2.0052   2.0825   2.0920   2.1922   2.2822   2.3778   2.5114
     2.5191   2.9108   3.0330   3.0603   3.1097   3.3295   3.3602   3.4249

          k = 0.0000 0.2638 0.0000 ( 12194 PWs)   bands (ev):

   -59.9715 -59.9694 -59.9608 -59.9587 -34.0110 -34.0086 -34.0034 -33.9978
   -33.9150 -33.8617 -33.8355 -33.8056 -33.8031 -33.7848 -33.7715 -33.7690
   -13.4694 -13.3564 -12.3893 -12.2988 -12.2379 -12.1807 -11.8255 -11.8028
   -11.6255 -11.6005  -0.4615  -0.4481  -0.3950  -0.2907  -0.2379   0.0391
     0.2952   0.4752   0.5185   0.6662   1.1623   1.3047   1.3621   1.8072
     1.8619   2.0696   2.2202   2.3171   2.4810   2.5477   2.6885   2.7945
     3.0415   3.0488   3.0935   3.2107   3.2287   3.5088   3.5820   3.7234

          k = 0.3333 0.0000 0.0000 ( 12204 PWs)   bands (ev):

   -59.9671 -59.9650 -59.9616 -59.9596 -34.0034 -34.0010 -33.9978 -33.9935
   -33.9117 -33.8844 -33.8714 -33.8618 -33.8156 -33.8100 -33.7944 -33.7838
   -12.9644 -12.8230 -12.3499 -12.1851 -12.1750 -12.1498 -11.7558 -11.7455
   -11.7132 -11.6710  -0.9226  -0.8459  -0.0967  -0.0913   0.0318   0.3629
     0.4912   0.8750   0.8808   1.1797   1.2151   1.2520   1.6195   1.7564
     1.7668   1.9318   2.0101   2.0271   2.1112   2.1753   2.2684   2.3172
     2.3502   2.7515   3.0386   3.1220   3.2064   3.3949   3.5728   3.6402

          k = 0.3333 0.2638 0.0000 ( 12225 PWs)   bands (ev):

   -59.9671 -59.9650 -59.9616 -59.9597 -34.0054 -34.0030 -34.0005 -33.9962
   -33.9114 -33.8842 -33.8711 -33.8616 -33.8155 -33.8100 -33.7944 -33.7838
   -12.9011 -12.7759 -12.3088 -12.1819 -12.1587 -12.1340 -11.7425 -11.7230
   -11.6446 -11.6268  -0.9249  -0.8463  -0.1663  -0.1581  -0.0902   0.1621
     0.2639   0.4014   0.4491   0.6791   0.7359   0.9550   1.2981   1.3245
     1.4360   1.4752   1.6000   1.6954   1.8587   2.3010   2.5245   2.7181
     2.9905   2.9958   3.3802   3.5731   3.6003   3.7579   3.8025   3.8080

     highest occupied level (ev):     3.8080

!    total energy              =    -922.11155578 Ry
     Harris-Foulkes estimate   =    -922.11155578 Ry
     estimated scf accuracy    <          8.1E-11 Ry

     The total energy is the sum of the following terms:

     one-electron contribution =    -590.99176915 Ry
     hartree contribution      =     334.84165003 Ry
     xc contribution           =    -174.08979414 Ry
     ewald contribution        =    -491.74104654 Ry
     Dispersion Correction     =      -0.13059599 Ry

     convergence has been achieved in  32 iterations

     Forces acting on atoms (cartesian axes, Ry/au):

     atom    1 type  1   force =     0.00000000   -0.00002141   -0.00010620
     atom    2 type  1   force =     0.00000000    0.00002141    0.00010620
     atom    3 type  1   force =     0.00000000    0.00002141   -0.00010620
     atom    4 type  1   force =     0.00000000   -0.00002141    0.00010620
     atom    5 type  2   force =     0.00000000   -0.00019556    0.00010481
     atom    6 type  2   force =     0.00000000    0.00019556   -0.00010481
     atom    7 type  2   force =     0.00000000    0.00019556    0.00010481
     atom    8 type  2   force =     0.00000000   -0.00019556   -0.00010481
     atom    9 type  2   force =     0.00000000   -0.00011041    0.00004534
     atom   10 type  2   force =    -0.00000000    0.00011041   -0.00004534
     atom   11 type  2   force =     0.00000000    0.00011041    0.00004534
     atom   12 type  2   force =     0.00000000    0.00020148    0.00000000
     atom   13 type  2   force =     0.00000000   -0.00020148   -0.00000000
     atom   14 type  2   force =     0.00000000   -0.00011041   -0.00004534

     Total force =     0.000618     Total SCF correction =     0.000019


     Computing stress (Cartesian axis) and pressure

          total   stress  (Ry/bohr**3)                   (kbar)     P=  -20.39
  -0.00013874   0.00000000   0.00000000        -20.41      0.00      0.00
   0.00000000  -0.00014315   0.00000000          0.00    -21.06      0.00
   0.00000000   0.00000000  -0.00013396          0.00      0.00    -19.71


     BFGS Geometry Optimization

     number of scf cycles    =   1
     number of bfgs steps    =   0

     enthalpy new            =    -922.1115557816 Ry

     new trust radius        =       0.0251385574 bohr
     new conv_thr            =            1.0E-10 Ry

     new unit-cell volume =   1220.79728 a.u.^3 (   180.90349 Ang^3 )
     density =      3.33900 g/cm^3

CELL_PARAMETERS (alat=  6.68268247)
   0.996531568   0.000000000   0.000000000
   0.000000000   1.259137213   0.000000000
   0.000000000   0.000000000   3.260070223

ATOMIC_POSITIONS (crystal)
V        0.000000000   0.382886990   0.648073521
V        0.500000002   0.617113014   0.851926484
V        0.500000002   0.617113014   0.148073520
V        0.000000000   0.382886990   0.351926482
O        0.500000002   0.492351526   0.681295483
O        0.000000000   0.507648478   0.818704522
O        0.000000000   0.507648478   0.181295482
O        0.500000002   0.492351526   0.318704520
O        0.000000000   0.028850847   0.354170269
O        0.500000002   0.971149157   0.145829734
O        0.500000002   0.971149157   0.854170270
O        0.500000002   0.509167479   0.000000000
O        0.000000000   0.490832525   0.500000002
O        0.000000000   0.028850847   0.645829736



     Writing output data file v2o5.save/
     NEW-OLD atomic charge density approx. for the potential

     Check: negative core charge=   -0.000007
     extrapolated charge  110.82756, renormalised to  112.00000

     total cpu time spent up to now is       20.4 secs

     Self-consistent Calculation

     iteration #  1     ecut=    70.00 Ry     beta= 0.70
     Davidson diagonalization with overlap
     ethr =  1.00E-06,  avg # of iterations = 10.0

     total cpu time spent up to now is       22.7 secs

     total energy              =    -921.58825779 Ry
     Harris-Foulkes estimate   =    -927.22531409 Ry
     estimated scf accuracy    <       0.52275131 Ry

     iteration #  2     ecut=    70.00 Ry     beta= 0.70
     Davidson diagonalization with overlap
     ethr =  4.67E-04,  avg # of iterations =  4.2

     total cpu time spent up to now is       23.9 secs

     total energy              =    -921.73951061 Ry
     Harris-Foulkes estimate   =    -923.39852921 Ry
     estimated scf accuracy    <       6.24617491 Ry

     iteration #  3     ecut=    70.00 Ry     beta= 0.70
     Davidson diagonalization with overlap
     ethr =  4.67E-04,  avg # of iterations =  5.0

     total cpu time spent up to now is       25.2 secs

     total energy              =    -922.12364178 Ry
     Harris-Foulkes estimate   =    -922.19365858 Ry
     estimated scf accuracy    <       0.48490986 Ry

     iteration #  4     ecut=    70.00 Ry     beta= 0.70
     Davidson diagonalization with overlap
     ethr =  4.33E-04,  avg # of iterations =  1.0

     total cpu time spent up to now is       25.6 secs

     total energy              =    -922.10261114 Ry
     Harris-Foulkes estimate   =    -922.12906884 Ry
     estimated scf accuracy    <       0.33422784 Ry

     iteration #  5     ecut=    70.00 Ry     beta= 0.70
     Davidson diagonalization with overlap
     ethr =  2.98E-04,  avg # of iterations =  1.0

     total cpu time spent up to now is       26.1 secs

     total energy              =    -922.10641660 Ry
     Harris-Foulkes estimate   =    -922.10869172 Ry
     estimated scf accuracy    <       0.21312476 Ry

     iteration #  6     ecut=    70.00 Ry     beta= 0.70
     Davidson diagonalization with overlap
     ethr =  1.90E-04,  avg # of iterations =  1.0

     total cpu time spent up to now is       26.6 secs

     total energy              =    -922.10496116 Ry
     Harris-Foulkes estimate   =    -922.11042092 Ry
     estimated scf accuracy    <       0.19144994 Ry

     iteration #  7     ecut=    70.00 Ry     beta= 0.70
     Davidson diagonalization with overlap
     ethr =  1.71E-04,  avg # of iterations =  1.0

     total cpu time spent up to now is       27.1 secs

     total energy              =    -922.10092410 Ry
     Harris-Foulkes estimate   =    -922.10805599 Ry
     estimated scf accuracy    <       0.14356387 Ry

     iteration #  8     ecut=    70.00 Ry     beta= 0.70
     Davidson diagonalization with overlap
     ethr =  1.28E-04,  avg # of iterations =  1.8

     total cpu time spent up to now is       27.6 secs

     total energy              =    -922.09727222 Ry
     Harris-Foulkes estimate   =    -922.10422629 Ry
     estimated scf accuracy    <       0.11042117 Ry

     iteration #  9     ecut=    70.00 Ry     beta= 0.70
     Davidson diagonalization with overlap
     ethr =  9.86E-05,  avg # of iterations =  3.5

     total cpu time spent up to now is       28.2 secs

     total energy              =    -922.10917193 Ry
     Harris-Foulkes estimate   =    -922.10715691 Ry
     estimated scf accuracy    <       0.01955970 Ry

     iteration # 10     ecut=    70.00 Ry     beta= 0.70
     Davidson diagonalization with overlap
     ethr =  1.75E-05,  avg # of iterations =  4.2

     total cpu time spent up to now is       29.0 secs

     total energy              =    -922.10978615 Ry
     Harris-Foulkes estimate   =    -922.11374128 Ry
     estimated scf accuracy    <       0.00539614 Ry

     iteration # 11     ecut=    70.00 Ry     beta= 0.70
     Davidson diagonalization with overlap
     ethr =  4.82E-06,  avg # of iterations =  5.0

     total cpu time spent up to now is       30.3 secs

     total energy              =    -922.11570826 Ry
     Harris-Foulkes estimate   =    -922.11723592 Ry
     estimated scf accuracy    <       0.04131644 Ry

     iteration # 12     ecut=    70.00 Ry     beta= 0.70
     Davidson diagonalization with overlap
     ethr =  4.82E-06,  avg # of iterations =  1.0

     total cpu time spent up to now is       30.8 secs

     total energy              =    -922.11045978 Ry
     Harris-Foulkes estimate   =    -922.11574756 Ry
     estimated scf accuracy    <       0.03661079 Ry

     iteration # 13     ecut=    70.00 Ry     beta= 0.70
     Davidson diagonalization with overlap
     ethr =  4.82E-06,  avg # of iterations =  4.0

     total cpu time spent up to now is       31.7 secs

     total energy              =    -922.11248074 Ry
     Harris-Foulkes estimate   =    -922.11272974 Ry
     estimated scf accuracy    <       0.00246491 Ry

     iteration # 14     ecut=    70.00 Ry     beta= 0.70
     Davidson diagonalization with overlap
     ethr =  2.20E-06,  avg # of iterations =  1.0

     total cpu time spent up to now is       32.2 secs

     total energy              =    -922.11270174 Ry
     Harris-Foulkes estimate   =    -922.11250526 Ry
     estimated scf accuracy    <       0.00182932 Ry

     iteration # 15     ecut=    70.00 Ry     beta= 0.70
     Davidson diagonalization with overlap
     ethr =  1.63E-06,  avg # of iterations =  1.0

     total cpu time spent up to now is       32.7 secs

     total energy              =    -922.11350415 Ry
     Harris-Foulkes estimate   =    -922.11271205 Ry
     estimated scf accuracy    <       0.00218739 Ry

     iteration # 16     ecut=    70.00 Ry     beta= 0.70
     Davidson diagonalization with overlap
     ethr =  1.63E-06,  avg # of iterations =  4.0

     total cpu time spent up to now is       33.6 secs

     total energy              =    -922.11358949 Ry
     Harris-Foulkes estimate   =    -922.11407026 Ry
     estimated scf accuracy    <       0.01401529 Ry

     iteration # 17     ecut=    70.00 Ry     beta= 0.70
     Davidson diagonalization with overlap
     ethr =  1.63E-06,  avg # of iterations =  1.0

     total cpu time spent up to now is       34.1 secs

     total energy              =    -922.11123461 Ry
     Harris-Foulkes estimate   =    -922.11360290 Ry
     estimated scf accuracy    <       0.01257869 Ry

     iteration # 18     ecut=    70.00 Ry     beta= 0.70
     Davidson diagonalization with overlap
     ethr =  1.63E-06,  avg # of iterations =  5.0

     total cpu time spent up to now is       35.2 secs

     total energy              =    -922.11243345 Ry
     Harris-Foulkes estimate   =    -922.11248563 Ry
     estimated scf accuracy    <       0.00030075 Ry

     iteration # 19     ecut=    70.00 Ry     beta= 0.70
     Davidson diagonalization with overlap
     ethr =  2.69E-07,  avg # of iterations =  5.0

     total cpu time spent up to now is       36.2 secs

     total energy              =    -922.11245849 Ry
     Harris-Foulkes estimate   =    -922.11252542 Ry
     estimated scf accuracy    <       0.00081832 Ry

     iteration # 20     ecut=    70.00 Ry     beta= 0.70
     Davidson diagonalization with overlap
     ethr =  2.69E-07,  avg # of iterations =  1.0

     total cpu time spent up to now is       36.7 secs

     total energy              =    -922.11240548 Ry
     Harris-Foulkes estimate   =    -922.11246286 Ry
     estimated scf accuracy    <       0.00061151 Ry

     iteration # 21     ecut=    70.00 Ry     beta= 0.70
     Davidson diagonalization with overlap
     ethr =  2.69E-07,  avg # of iterations =  3.0

     total cpu time spent up to now is       37.3 secs

     total energy              =    -922.11238094 Ry
     Harris-Foulkes estimate   =    -922.11242106 Ry
     estimated scf accuracy    <       0.00027713 Ry

     iteration # 22     ecut=    70.00 Ry     beta= 0.70
     Davidson diagonalization with overlap
     ethr =  2.47E-07,  avg # of iterations =  4.5

     total cpu time spent up to now is       38.0 secs

     total energy              =    -922.11241364 Ry
     Harris-Foulkes estimate   =    -922.11241653 Ry
     estimated scf accuracy    <       0.00001332 Ry

     iteration # 23     ecut=    70.00 Ry     beta= 0.70
     Davidson diagonalization with overlap
     ethr =  1.19E-08,  avg # of iterations =  5.0

     total cpu time spent up to now is       39.1 secs

     total energy              =    -922.11243258 Ry
     Harris-Foulkes estimate   =    -922.11243241 Ry
     estimated scf accuracy    <       0.00002648 Ry

     iteration # 24     ecut=    70.00 Ry     beta= 0.70
     Davidson diagonalization with overlap
     ethr =  1.19E-08,  avg # of iterations =  1.0

     total cpu time spent up to now is       39.6 secs

     total energy              =    -922.11242996 Ry
     Harris-Foulkes estimate   =    -922.11243280 Ry
     estimated scf accuracy    <       0.00002805 Ry

     iteration # 25     ecut=    70.00 Ry     beta= 0.70
     Davidson diagonalization with overlap
     ethr =  1.19E-08,  avg # of iterations =  2.8

     total cpu time spent up to now is       40.2 secs

     total energy              =    -922.11242924 Ry
     Harris-Foulkes estimate   =    -922.11243036 Ry
     estimated scf accuracy    <       0.00001867 Ry

     iteration # 26     ecut=    70.00 Ry     beta= 0.70
     Davidson diagonalization with overlap
     ethr =  1.19E-08,  avg # of iterations =  1.0

     total cpu time spent up to now is       40.6 secs

     total energy              =    -922.11242781 Ry
     Harris-Foulkes estimate   =    -922.11242944 Ry
     estimated scf accuracy    <       0.00001439 Ry

     iteration # 27     ecut=    70.00 Ry     beta= 0.70
     Davidson diagonalization with overlap
     ethr =  1.19E-08,  avg # of iterations =  1.8

     total cpu time spent up to now is       41.2 secs

     total energy              =    -922.11242766 Ry
     Harris-Foulkes estimate   =    -922.11242818 Ry
     estimated scf accuracy    <       0.00000785 Ry

     iteration # 28     ecut=    70.00 Ry     beta= 0.70
     Davidson diagonalization with overlap
     ethr =  7.01E-09,  avg # of iterations =  3.8

     total cpu time spent up to now is       41.8 secs

     total energy              =    -922.11242779 Ry
     Harris-Foulkes estimate   =    -922.11242814 Ry
     estimated scf accuracy    <       0.00000394 Ry

     iteration # 29     ecut=    70.00 Ry     beta= 0.70
     Davidson diagonalization with overlap
     ethr =  3.52E-09,  avg # of iterations =  4.5

     total cpu time spent up to now is       42.6 secs

     total energy              =    -922.11242874 Ry
     Harris-Foulkes estimate   =    -922.11242871 Ry
     estimated scf accuracy    <       0.00000014 Ry

     iteration # 30     ecut=    70.00 Ry     beta= 0.70
     Davidson diagonalization with overlap
     ethr =  1.26E-10,  avg # of iterations =  4.8

     total cpu time spent up to now is       43.5 secs

     total energy              =    -922.11242875 Ry
     Harris-Foulkes estimate   =    -922.11242880 Ry
     estimated scf accuracy    <       0.00000070 Ry

     iteration # 31     ecut=    70.00 Ry     beta= 0.70
     Davidson diagonalization with overlap
     ethr =  1.26E-10,  avg # of iterations =  1.0

     total cpu time spent up to now is       44.0 secs

     total energy              =    -922.11242863 Ry
     Harris-Foulkes estimate   =    -922.11242876 Ry
     estimated scf accuracy    <       0.00000058 Ry

     iteration # 32     ecut=    70.00 Ry     beta= 0.70
     Davidson diagonalization with overlap
     ethr =  1.26E-10,  avg # of iterations =  4.0

     total cpu time spent up to now is       45.0 secs

     total energy              =    -922.11242871 Ry
     Harris-Foulkes estimate   =    -922.11242871 Ry
     estimated scf accuracy    <       0.00000003 Ry

     iteration # 33     ecut=    70.00 Ry     beta= 0.70
     Davidson diagonalization with overlap
     ethr =  2.42E-11,  avg # of iterations =  1.0

     total cpu time spent up to now is       45.4 secs

     total energy              =    -922.11242871 Ry
     Harris-Foulkes estimate   =    -922.11242871 Ry
     estimated scf accuracy    <       0.00000003 Ry

     iteration # 34     ecut=    70.00 Ry     beta= 0.70
     Davidson diagonalization with overlap
     ethr =  2.42E-11,  avg # of iterations =  1.0

     total cpu time spent up to now is       45.9 secs

     total energy              =    -922.11242872 Ry
     Harris-Foulkes estimate   =    -922.11242871 Ry
     estimated scf accuracy    <       0.00000004 Ry

     iteration # 35     ecut=    70.00 Ry     beta= 0.70
     Davidson diagonalization with overlap
     ethr =  2.42E-11,  avg # of iterations =  4.0

     total cpu time spent up to now is       46.9 secs

     total energy              =    -922.11242874 Ry
     Harris-Foulkes estimate   =    -922.11242873 Ry
     estimated scf accuracy    <       0.00000024 Ry

     iteration # 36     ecut=    70.00 Ry     beta= 0.70
     Davidson diagonalization with overlap
     ethr =  2.42E-11,  avg # of iterations =  1.0

     total cpu time spent up to now is       47.4 secs

     total energy              =    -922.11242872 Ry
     Harris-Foulkes estimate   =    -922.11242874 Ry
     estimated scf accuracy    <       0.00000025 Ry

     iteration # 37     ecut=    70.00 Ry     beta= 0.70
     Davidson diagonalization with overlap
     ethr =  2.42E-11,  avg # of iterations =  3.5

     total cpu time spent up to now is       48.0 secs

     total energy              =    -922.11242868 Ry
     Harris-Foulkes estimate   =    -922.11242873 Ry
     estimated scf accuracy    <       0.00000019 Ry

     iteration # 38     ecut=    70.00 Ry     beta= 0.70
     Davidson diagonalization with overlap
     ethr =  2.42E-11,  avg # of iterations =  4.5

     total cpu time spent up to now is       49.2 secs

     total energy              =    -922.11242870 Ry
     Harris-Foulkes estimate   =    -922.11242871 Ry
     estimated scf accuracy    <          8.8E-09 Ry

     iteration # 39     ecut=    70.00 Ry     beta= 0.70
     Davidson diagonalization with overlap
     ethr =  7.82E-12,  avg # of iterations =  4.0

     total cpu time spent up to now is       50.0 secs

     total energy              =    -922.11242871 Ry
     Harris-Foulkes estimate   =    -922.11242871 Ry
     estimated scf accuracy    <          4.8E-10 Ry

     iteration # 40     ecut=    70.00 Ry     beta= 0.70
     Davidson diagonalization with overlap
     ethr =  4.27E-13,  avg # of iterations =  4.2

     total cpu time spent up to now is       50.8 secs

     End of self-consistent calculation

          k = 0.0000 0.0000 0.0000 ( 12161 PWs)   bands (ev):

   -59.8264 -59.8241 -59.8150 -59.8128 -33.8814 -33.8790 -33.8719 -33.8662
   -33.7780 -33.7223 -33.6945 -33.6636 -33.6610 -33.6414 -33.6278 -33.6252
   -13.4653 -13.3395 -12.3544 -12.2343 -12.1473 -12.0949 -11.7050 -11.7011
   -11.5388 -11.5184  -0.3367  -0.3228  -0.2843  -0.1774   0.0203   0.4556
     1.1424   1.1889   1.4277   1.4290   1.6732   1.7116   1.9777   1.9807
     2.0206   2.1131   2.1740   2.1965   2.2852   2.3786   2.4775   2.6152
     2.6209   3.0199   3.1484   3.1759   3.2141   3.4352   3.4670   3.5379

          k = 0.0000 0.2647 0.0000 ( 12194 PWs)   bands (ev):

   -59.8264 -59.8242 -59.8151 -59.8129 -33.8832 -33.8807 -33.8753 -33.8695
   -33.7776 -33.7219 -33.6945 -33.6635 -33.6608 -33.6414 -33.6278 -33.6252
   -13.3911 -13.2760 -12.2901 -12.2069 -12.1437 -12.0759 -11.7127 -11.6891
   -11.5076 -11.4816  -0.3839  -0.3698  -0.3219  -0.2228  -0.1617   0.1073
     0.3841   0.5648   0.5966   0.7387   1.2595   1.3931   1.4513   1.9082
     1.9572   2.1610   2.3137   2.4309   2.5952   2.6497   2.7951   2.9057
     3.1588   3.1668   3.2031   3.3191   3.3354   3.6195   3.6963   3.8386

          k = 0.3345 0.0000 0.0000 ( 12204 PWs)   bands (ev):

   -59.8217 -59.8196 -59.8159 -59.8139 -33.8753 -33.8728 -33.8695 -33.8650
   -33.7742 -33.7457 -33.7323 -33.7223 -33.6738 -33.6682 -33.6517 -33.6404
   -12.8763 -12.7318 -12.2500 -12.0853 -12.0727 -12.0432 -11.6417 -11.6321
   -11.5978 -11.5555  -0.8505  -0.7697  -0.0184  -0.0120   0.1226   0.4507
     0.5745   0.9565   0.9612   1.2593   1.2991   1.3332   1.7093   1.8491
     1.8599   2.0360   2.1189   2.1208   2.2274   2.2745   2.3917   2.4253
     2.4517   2.8555   3.1408   3.2341   3.3083   3.5001   3.6799   3.7541

          k = 0.3345 0.2647 0.0000 ( 12225 PWs)   bands (ev):

   -59.8217 -59.8196 -59.8160 -59.8140 -33.8774 -33.8748 -33.8724 -33.8679
   -33.7738 -33.7454 -33.7319 -33.7220 -33.6738 -33.6682 -33.6517 -33.6404
   -12.8118 -12.6836 -12.2092 -12.0820 -12.0549 -12.0271 -11.6272 -11.6067
   -11.5268 -11.5079  -0.8527  -0.7701  -0.0957  -0.0778  -0.0094   0.2293
     0.3494   0.4776   0.5288   0.7570   0.8188   1.0455   1.3996   1.4104
     1.5321   1.5686   1.7000   1.7900   1.9586   2.3999   2.6245   2.8253
     3.1024   3.1102   3.4904   3.6823   3.7128   3.8711   3.9191   3.9197

     highest occupied level (ev):     3.9197

!    total energy              =    -922.11242871 Ry
     Harris-Foulkes estimate   =    -922.11242871 Ry
     estimated scf accuracy    <          6.2E-11 Ry

     The total energy is the sum of the following terms:

     one-electron contribution =    -588.38315092 Ry
     hartree contribution      =     334.05219407 Ry
     xc contribution           =    -174.18809722 Ry
     ewald contribution        =    -493.46133435 Ry
     Dispersion Correction     =      -0.13204029 Ry

     convergence has been achieved in  40 iterations

     Forces acting on atoms (cartesian axes, Ry/au):

     atom    1 type  1   force =    -0.00000000    0.00692837    0.00164991
     atom    2 type  1   force =     0.00000000   -0.00692837   -0.00164991
     atom    3 type  1   force =     0.00000000   -0.00692837    0.00164991
     atom    4 type  1   force =     0.00000000    0.00692837   -0.00164991
     atom    5 type  2   force =     0.00000000    0.00140243   -0.00094285
     atom    6 type  2   force =     0.00000000   -0.00140243    0.00094285
     atom    7 type  2   force =     0.00000000   -0.00140243   -0.00094285
     atom    8 type  2   force =     0.00000000    0.00140243    0.00094285
     atom    9 type  2   force =     0.00000000   -0.01200477    0.00035479
     atom   10 type  2   force =    -0.00000000    0.01200477   -0.00035479
     atom   11 type  2   force =     0.00000000    0.01200477    0.00035479
     atom   12 type  2   force =     0.00000000   -0.00315170    0.00000000
     atom   13 type  2   force =     0.00000000    0.00315170   -0.00000000
     atom   14 type  2   force =     0.00000000   -0.01200477   -0.00035479

     Total force =     0.028481     Total SCF correction =     0.000019


     Computing stress (Cartesian axis) and pressure

          total   stress  (Ry/bohr**3)                   (kbar)     P=    0.45
  -0.00000799   0.00000000   0.00000000         -1.17      0.00      0.00
   0.00000000   0.00001596   0.00000000          0.00      2.35      0.00
   0.00000000   0.00000000   0.00000127          0.00      0.00      0.19


     number of scf cycles    =   2
     number of bfgs steps    =   1

     enthalpy old            =    -922.1115557816 Ry
     enthalpy new            =    -922.1124287056 Ry

     CASE: enthalpy_new < enthalpy_old

     new trust radius        =       0.0120052736 bohr
     new conv_thr            =            8.7E-12 Ry

     new unit-cell volume =   1215.50571 a.u.^3 (   180.11936 Ang^3 )
     density =      3.35354 g/cm^3

CELL_PARAMETERS (alat=  6.68268247)
   0.994819539   0.000000000   0.000000000
   0.000000000   1.257647677   0.000000000
   0.000000000   0.000000000   3.255376516

ATOMIC_POSITIONS (crystal)
V       -0.000000000   0.383685426   0.648144968
V        0.500000002   0.616314578   0.851855038
V        0.500000002   0.616314578   0.148144967
V        0.000000000   0.383685426   0.351855036
O        0.500000002   0.492503232   0.681255538
O        0.000000000   0.507496772   0.818744467
O        0.000000000   0.507496772   0.181255537
O        0.500000002   0.492503232   0.318744465
O        0.000000000   0.027459753   0.354186998
O        0.500000002   0.972540251   0.145813005
O        0.500000002   0.972540251   0.854186999
O        0.500000002   0.508814211   0.000000000
O        0.000000000   0.491185793   0.500000002
O        0.000000000   0.027459753   0.645813007



     Writing output data file v2o5.save/
     NEW-OLD atomic charge density approx. for the potential

     Check: negative core charge=   -0.000006
     extrapolated charge  111.51244, renormalised to  112.00000

     total cpu time spent up to now is       52.6 secs

     Self-consistent Calculation

     iteration #  1     ecut=    70.00 Ry     beta= 0.70
     Davidson diagonalization with overlap
     ethr =  1.00E-06,  avg # of iterations =  9.0

     total cpu time spent up to now is       54.7 secs

     total energy              =    -922.04513708 Ry
     Harris-Foulkes estimate   =    -924.21623680 Ry
     estimated scf accuracy    <       0.06469141 Ry

     iteration #  2     ecut=    70.00 Ry     beta= 0.70
     Davidson diagonalization with overlap
     ethr =  5.78E-05,  avg # of iterations =  5.0

     total cpu time spent up to now is       55.9 secs

     total energy              =    -922.02652272 Ry
     Harris-Foulkes estimate   =    -922.30596760 Ry
     estimated scf accuracy    <       1.26164656 Ry

     iteration #  3     ecut=    70.00 Ry     beta= 0.70
     Davidson diagonalization with overlap
     ethr =  5.78E-05,  avg # of iterations =  5.0

     total cpu time spent up to now is       57.2 secs

     total energy              =    -922.11475192 Ry
     Harris-Foulkes estimate   =    -922.12131725 Ry
     estimated scf accuracy    <       0.05239155 Ry

     iteration #  4     ecut=    70.00 Ry     beta= 0.70
     Davidson diagonalization with overlap
     ethr =  4.68E-05,  avg # of iterations =  1.0

     total cpu time spent up to now is       57.7 secs

     total energy              =    -922.11000677 Ry
     Harris-Foulkes estimate   =    -922.11534337 Ry
     estimated scf accuracy    <       0.03829930 Ry

     iteration #  5     ecut=    70.00 Ry     beta= 0.70
     Davidson diagonalization with overlap
     ethr =  3.42E-05,  avg # of iterations =  3.0

     total cpu time spent up to now is       58.3 secs

     total energy              =    -922.11163897 Ry
     Harris-Foulkes estimate   =    -922.11152773 Ry
     estimated scf accuracy    <       0.01297720 Ry

     iteration #  6     ecut=    70.00 Ry     beta= 0.70
     Davidson diagonalization with overlap
     ethr =  1.16E-05,  avg # of iterations =  4.0

     total cpu time spent up to now is       59.0 secs

     total energy              =    -922.11233831 Ry
     Harris-Foulkes estimate   =    -922.11250789 Ry
     estimated scf accuracy    <       0.00891906 Ry

     iteration #  7     ecut=    70.00 Ry     beta= 0.70
     Davidson diagonalization with overlap
     ethr =  7.96E-06,  avg # of iterations =  1.0

     total cpu time spent up to now is       59.5 secs

     total energy              =    -922.11263483 Ry
     Harris-Foulkes estimate   =    -922.11251869 Ry
     estimated scf accuracy    <       0.00724591 Ry

     iteration #  8     ecut=    70.00 Ry     beta= 0.70
     Davidson diagonalization with overlap
     ethr =  6.47E-06,  avg # of iterations =  1.0

     total cpu time spent up to now is       59.9 secs

     total energy              =    -922.11208507 Ry
     Harris-Foulkes estimate   =    -922.11273208 Ry
     estimated scf accuracy    <       0.00683856 Ry

     iteration #  9     ecut=    70.00 Ry     beta= 0.70
     Davidson diagonalization with overlap
     ethr =  6.11E-06,  avg # of iterations =  3.0

     total cpu time spent up to now is       60.5 secs

     total energy              =    -922.11119030 Ry
     Harris-Foulkes estimate   =    -922.11238517 Ry
     estimated scf accuracy    <       0.00317517 Ry

     iteration # 10     ecut=    70.00 Ry     beta= 0.70
     Davidson diagonalization with overlap
     ethr =  2.83E-06,  avg # of iterations =  4.5

     total cpu time spent up to now is       61.6 secs

     total energy              =    -922.11388237 Ry
     Harris-Foulkes estimate   =    -922.11336877 Ry
     estimated scf accuracy    <       0.00633315 Ry

     iteration # 11     ecut=    70.00 Ry     beta= 0.70
     Davidson diagonalization with overlap
     ethr =  2.83E-06,  avg # of iterations =  1.0

     total cpu time spent up to now is       62.1 secs

     total energy              =    -922.11268623 Ry
     Harris-Foulkes estimate   =    -922.11393264 Ry
     estimated scf accuracy    <       0.00771349 Ry

     iteration # 12     ecut=    70.00 Ry     beta= 0.70
     Davidson diagonalization with overlap
     ethr =  2.83E-06,  avg # of iterations =  1.0

     total cpu time spent up to now is       62.5 secs

     total energy              =    -922.11257152 Ry
     Harris-Foulkes estimate   =    -922.11277036 Ry
     estimated scf accuracy    <       0.00486194 Ry

     iteration # 13     ecut=    70.00 Ry     beta= 0.70
     Davidson diagonalization with overlap
     ethr =  2.83E-06,  avg # of iterations =  1.0

     total cpu time spent up to now is       63.0 secs

     total energy              =    -922.11272591 Ry
     Harris-Foulkes estimate   =    -922.11262442 Ry
     estimated scf accuracy    <       0.00387360 Ry

     iteration # 14     ecut=    70.00 Ry     beta= 0.70
     Davidson diagonalization with overlap
     ethr =  2.83E-06,  avg # of iterations =  1.0

     total cpu time spent up to now is       63.5 secs

     total energy              =    -922.11275488 Ry
     Harris-Foulkes estimate   =    -922.11275299 Ry
     estimated scf accuracy    <       0.00373380 Ry

     iteration # 15     ecut=    70.00 Ry     beta= 0.70
     Davidson diagonalization with overlap
     ethr =  2.83E-06,  avg # of iterations =  1.0

     total cpu time spent up to now is       63.9 secs

     total energy              =    -922.11366681 Ry
     Harris-Foulkes estimate   =    -922.11277153 Ry
     estimated scf accuracy    <       0.00337645 Ry

     iteration # 16     ecut=    70.00 Ry     beta= 0.70
     Davidson diagonalization with overlap
     ethr =  2.83E-06,  avg # of iterations =  1.0

     total cpu time spent up to now is       64.4 secs

     total energy              =    -922.11317310 Ry
     Harris-Foulkes estimate   =    -922.11375171 Ry
     estimated scf accuracy    <       0.00576451 Ry

     iteration # 17     ecut=    70.00 Ry     beta= 0.70
     Davidson diagonalization with overlap
     ethr =  2.83E-06,  avg # of iterations =  1.0

     total cpu time spent up to now is       64.9 secs

     total energy              =    -922.11289592 Ry
     Harris-Foulkes estimate   =    -922.11320917 Ry
     estimated scf accuracy    <       0.00482118 Ry

     iteration # 18     ecut=    70.00 Ry     beta= 0.70
     Davidson diagonalization with overlap
     ethr =  2.83E-06,  avg # of iterations =  1.0

     total cpu time spent up to now is       65.4 secs

     total energy              =    -922.11248441 Ry
     Harris-Foulkes estimate   =    -922.11291259 Ry
     estimated scf accuracy    <       0.00396274 Ry

     iteration # 19     ecut=    70.00 Ry     beta= 0.70
     Davidson diagonalization with overlap
     ethr =  2.83E-06,  avg # of iterations =  2.0

     total cpu time spent up to now is       65.9 secs

     total energy              =    -922.11236699 Ry
     Harris-Foulkes estimate   =    -922.11257180 Ry
     estimated scf accuracy    <       0.00200991 Ry

     iteration # 20     ecut=    70.00 Ry     beta= 0.70
     Davidson diagonalization with overlap
     ethr =  1.79E-06,  avg # of iterations =  3.8

     total cpu time spent up to now is       66.5 secs

     total energy              =    -922.11237866 Ry
     Harris-Foulkes estimate   =    -922.11247138 Ry
     estimated scf accuracy    <       0.00098657 Ry

     iteration # 21     ecut=    70.00 Ry     beta= 0.70
     Davidson diagonalization with overlap
     ethr =  8.81E-07,  avg # of iterations =  4.0

     total cpu time spent up to now is       67.3 secs

     total energy              =    -922.11259802 Ry
     Harris-Foulkes estimate   =    -922.11261752 Ry
     estimated scf accuracy    <       0.00004492 Ry

     iteration # 22     ecut=    70.00 Ry     beta= 0.70
     Davidson diagonalization with overlap
     ethr =  4.01E-08,  avg # of iterations =  5.0

     total cpu time spent up to now is       68.5 secs

     total energy              =    -922.11269433 Ry
     Harris-Foulkes estimate   =    -922.11263292 Ry
     estimated scf accuracy    <       0.00012928 Ry

     iteration # 23     ecut=    70.00 Ry     beta= 0.70
     Davidson diagonalization with overlap
     ethr =  4.01E-08,  avg # of iterations =  5.0

     total cpu time spent up to now is       69.9 secs

     total energy              =    -922.11243307 Ry
     Harris-Foulkes estimate   =    -922.11275507 Ry
     estimated scf accuracy    <       0.00118172 Ry

     iteration # 24     ecut=    70.00 Ry     beta= 0.70
     Davidson diagonalization with overlap
     ethr =  4.01E-08,  avg # of iterations =  5.0

     total cpu time spent up to now is       71.1 secs

     total energy              =    -922.11262265 Ry
     Harris-Foulkes estimate   =    -922.11262509 Ry
     estimated scf accuracy    <       0.00007331 Ry

     iteration # 25     ecut=    70.00 Ry     beta= 0.70
     Davidson diagonalization with overlap
     ethr =  4.01E-08,  avg # of iterations =  3.0

     total cpu time spent up to now is       71.7 secs

     total energy              =    -922.11261570 Ry
     Harris-Foulkes estimate   =    -922.11262465 Ry
     estimated scf accuracy    <       0.00006447 Ry

     iteration # 26     ecut=    70.00 Ry     beta= 0.70
     Davidson diagonalization with overlap
     ethr =  4.01E-08,  avg # of iterations =  1.0

     total cpu time spent up to now is       72.2 secs

     total energy              =    -922.11261072 Ry
     Harris-Foulkes estimate   =    -922.11261652 Ry
     estimated scf accuracy    <       0.00004336 Ry

     iteration # 27     ecut=    70.00 Ry     beta= 0.70
     Davidson diagonalization with overlap
     ethr =  3.87E-08,  avg # of iterations =  2.5

     total cpu time spent up to now is       72.7 secs

     total energy              =    -922.11261129 Ry
     Harris-Foulkes estimate   =    -922.11261283 Ry
     estimated scf accuracy    <       0.00001277 Ry

     iteration # 28     ecut=    70.00 Ry     beta= 0.70
     Davidson diagonalization with overlap
     ethr =  1.14E-08,  avg # of iterations =  4.0

     total cpu time spent up to now is       73.6 secs

     total energy              =    -922.11261513 Ry
     Harris-Foulkes estimate   =    -922.11261519 Ry
     estimated scf accuracy    <       0.00000119 Ry

     iteration # 29     ecut=    70.00 Ry     beta= 0.70
     Davidson diagonalization with overlap
     ethr =  1.06E-09,  avg # of iterations =  3.8

     total cpu time spent up to now is       74.3 secs

     total energy              =    -922.11261508 Ry
     Harris-Foulkes estimate   =    -922.11261523 Ry
     estimated scf accuracy    <       0.00000152 Ry

     iteration # 30     ecut=    70.00 Ry     beta= 0.70
     Davidson diagonalization with overlap
     ethr =  1.06E-09,  avg # of iterations =  2.5

     total cpu time spent up to now is       74.8 secs

     total energy              =    -922.11261496 Ry
     Harris-Foulkes estimate   =    -922.11261510 Ry
     estimated scf accuracy    <       0.00000097 Ry

     iteration # 31     ecut=    70.00 Ry     beta= 0.70
     Davidson diagonalization with overlap
     ethr =  8.67E-10,  avg # of iterations =  3.0

     total cpu time spent up to now is       75.4 secs

     total energy              =    -922.11261501 Ry
     Harris-Foulkes estimate   =    -922.11261503 Ry
     estimated scf accuracy    <       0.00000017 Ry

     iteration # 32     ecut=    70.00 Ry     beta= 0.70
     Davidson diagonalization with overlap
     ethr =  1.52E-10,  avg # of iterations =  4.8

     total cpu time spent up to now is       76.4 secs

     total energy              =    -922.11261506 Ry
     Harris-Foulkes estimate   =    -922.11261506 Ry
     estimated scf accuracy    <       0.00000001 Ry

     iteration # 33     ecut=    70.00 Ry     beta= 0.70
     Davidson diagonalization with overlap
     ethr =  1.07E-11,  avg # of iterations =  4.0

     total cpu time spent up to now is       77.0 secs

     total energy              =    -922.11261506 Ry
     Harris-Foulkes estimate   =    -922.11261506 Ry
     estimated scf accuracy    <       0.00000001 Ry

     iteration # 34     ecut=    70.00 Ry     beta= 0.70
     Davidson diagonalization with overlap
     ethr =  1.07E-11,  avg # of iterations =  3.2

     total cpu time spent up to now is       77.6 secs

     total energy              =    -922.11261506 Ry
     Harris-Foulkes estimate   =    -922.11261506 Ry
     estimated scf accuracy    <          6.9E-09 Ry

     iteration # 35     ecut=    70.00 Ry     beta= 0.70
     Davidson diagonalization with overlap
     ethr =  6.13E-12,  avg # of iterations =  2.5

     total cpu time spent up to now is       78.2 secs

     total energy              =    -922.11261506 Ry
     Harris-Foulkes estimate   =    -922.11261506 Ry
     estimated scf accuracy    <          9.2E-09 Ry

     iteration # 36     ecut=    70.00 Ry     beta= 0.70
     Davidson diagonalization with overlap
     ethr =  6.13E-12,  avg # of iterations =  1.0

     total cpu time spent up to now is       78.6 secs

     total energy              =    -922.11261506 Ry
     Harris-Foulkes estimate   =    -922.11261506 Ry
     estimated scf accuracy    <          8.6E-09 Ry

     iteration # 37     ecut=    70.00 Ry     beta= 0.70
     Davidson diagonalization with overlap
     ethr =  6.13E-12,  avg # of iterations =  1.0

     total cpu time spent up to now is       79.1 secs

     total energy              =    -922.11261506 Ry
     Harris-Foulkes estimate   =    -922.11261506 Ry
     estimated scf accuracy    <          6.5E-09 Ry

     iteration # 38     ecut=    70.00 Ry     beta= 0.70
     Davidson diagonalization with overlap
     ethr =  5.84E-12,  avg # of iterations =  1.0

     total cpu time spent up to now is       79.6 secs

     total energy              =    -922.11261506 Ry
     Harris-Foulkes estimate   =    -922.11261506 Ry
     estimated scf accuracy    <          4.3E-09 Ry

     iteration # 39     ecut=    70.00 Ry     beta= 0.70
     Davidson diagonalization with overlap
     ethr =  3.84E-12,  avg # of iterations =  3.5

     total cpu time spent up to now is       80.2 secs

     total energy              =    -922.11261506 Ry
     Harris-Foulkes estimate   =    -922.11261506 Ry
     estimated scf accuracy    <          2.2E-09 Ry

     iteration # 40     ecut=    70.00 Ry     beta= 0.70
     Davidson diagonalization with overlap
     ethr =  1.93E-12,  avg # of iterations =  2.8

     total cpu time spent up to now is       80.7 secs

     total energy              =    -922.11261506 Ry
     Harris-Foulkes estimate   =    -922.11261506 Ry
     estimated scf accuracy    <          2.2E-09 Ry

     iteration # 41     ecut=    70.00 Ry     beta= 0.70
     Davidson diagonalization with overlap
     ethr =  1.93E-12,  avg # of iterations =  4.8

     total cpu time spent up to now is       81.9 secs

     total energy              =    -922.11261506 Ry
     Harris-Foulkes estimate   =    -922.11261506 Ry
     estimated scf accuracy    <       0.00000001 Ry

     iteration # 42     ecut=    70.00 Ry     beta= 0.70
     Davidson diagonalization with overlap
     ethr =  1.93E-12,  avg # of iterations =  4.0

     total cpu time spent up to now is       82.7 secs

     total energy              =    -922.11261506 Ry
     Harris-Foulkes estimate   =    -922.11261506 Ry
     estimated scf accuracy    <          2.6E-09 Ry

     iteration # 43     ecut=    70.00 Ry     beta= 0.70
     Davidson diagonalization with overlap
     ethr =  1.93E-12,  avg # of iterations =  1.0

     total cpu time spent up to now is       83.2 secs

     total energy              =    -922.11261506 Ry
     Harris-Foulkes estimate   =    -922.11261506 Ry
     estimated scf accuracy    <          2.3E-09 Ry

     iteration # 44     ecut=    70.00 Ry     beta= 0.70
     Davidson diagonalization with overlap
     ethr =  1.93E-12,  avg # of iterations =  1.0

     total cpu time spent up to now is       83.7 secs

     total energy              =    -922.11261506 Ry
     Harris-Foulkes estimate   =    -922.11261506 Ry
     estimated scf accuracy    <          2.2E-09 Ry

     iteration # 45     ecut=    70.00 Ry     beta= 0.70
     Davidson diagonalization with overlap
     ethr =  1.93E-12,  avg # of iterations =  1.0

     total cpu time spent up to now is       84.1 secs

     total energy              =    -922.11261506 Ry
     Harris-Foulkes estimate   =    -922.11261506 Ry
     estimated scf accuracy    <          2.1E-09 Ry

     iteration # 46     ecut=    70.00 Ry     beta= 0.70
     Davidson diagonalization with overlap
     ethr =  1.87E-12,  avg # of iterations =  1.0

     total cpu time spent up to now is       84.6 secs

     total energy              =    -922.11261506 Ry
     Harris-Foulkes estimate   =    -922.11261506 Ry
     estimated scf accuracy    <          1.8E-09 Ry

     iteration # 47     ecut=    70.00 Ry     beta= 0.70
     Davidson diagonalization with overlap
     ethr =  1.64E-12,  avg # of iterations =  1.0

     total cpu time spent up to now is       85.1 secs

     total energy              =    -922.11261506 Ry
     Harris-Foulkes estimate   =    -922.11261506 Ry
     estimated scf accuracy    <          1.6E-09 Ry

     iteration # 48     ecut=    70.00 Ry     beta= 0.70
     Davidson diagonalization with overlap
     ethr =  1.44E-12,  avg # of iterations =  1.0

     total cpu time spent up to now is       85.6 secs

     total energy              =    -922.11261506 Ry
     Harris-Foulkes estimate   =    -922.11261506 Ry
     estimated scf accuracy    <          1.4E-09 Ry

     iteration # 49     ecut=    70.00 Ry     beta= 0.70
     Davidson diagonalization with overlap
     ethr =  1.29E-12,  avg # of iterations =  2.0

     total cpu time spent up to now is       86.1 secs

     total energy              =    -922.11261506 Ry
     Harris-Foulkes estimate   =    -922.11261506 Ry
     estimated scf accuracy    <          6.6E-10 Ry

     iteration # 50     ecut=    70.00 Ry     beta= 0.70
     Davidson diagonalization with overlap
     ethr =  5.85E-13,  avg # of iterations =  4.0

     total cpu time spent up to now is       87.0 secs

     total energy              =    -922.11261506 Ry
     Harris-Foulkes estimate   =    -922.11261506 Ry
     estimated scf accuracy    <          3.7E-10 Ry

     iteration # 51     ecut=    70.00 Ry     beta= 0.70
     Davidson diagonalization with overlap
     ethr =  3.31E-13,  avg # of iterations =  1.0

     total cpu time spent up to now is       87.5 secs

     total energy              =    -922.11261506 Ry
     Harris-Foulkes estimate   =    -922.11261506 Ry
     estimated scf accuracy    <          2.5E-10 Ry

     iteration # 52     ecut=    70.00 Ry     beta= 0.70
     Davidson diagonalization with overlap
     ethr =  2.21E-13,  avg # of iterations =  3.0

     total cpu time spent up to now is       88.1 secs

     total energy              =    -922.11261506 Ry
     Harris-Foulkes estimate   =    -922.11261506 Ry
     estimated scf accuracy    <          4.3E-11 Ry

     iteration # 53     ecut=    70.00 Ry     beta= 0.70
     Davidson diagonalization with overlap
     ethr =  1.00E-13,  avg # of iterations =  4.2

     total cpu time spent up to now is       88.8 secs

     End of self-consistent calculation

          k = 0.0000 0.0000 0.0000 ( 12161 PWs)   bands (ev):

   -59.7857 -59.7834 -59.7738 -59.7716 -33.8174 -33.8146 -33.8078 -33.8012
   -33.7444 -33.6883 -33.6584 -33.6311 -33.6285 -33.6052 -33.5941 -33.5914
   -13.4593 -13.3338 -12.3307 -12.2273 -12.1350 -12.0657 -11.6339 -11.6327
   -11.4641 -11.4465  -0.3270  -0.3127  -0.2807  -0.1751   0.0450   0.4910
     1.1595   1.2660   1.4372   1.4991   1.7306   1.7689   2.0525   2.0657
     2.1190   2.2021   2.2301   2.2952   2.3110   2.4883   2.5563   2.6477
     2.7022   3.0550   3.2266   3.2268   3.2556   3.4896   3.4924   3.5893

          k = 0.0000 0.2650 0.0000 ( 12194 PWs)   bands (ev):

   -59.7857 -59.7835 -59.7739 -59.7717 -33.8193 -33.8164 -33.8112 -33.8046
   -33.7439 -33.6878 -33.6583 -33.6309 -33.6283 -33.6052 -33.5941 -33.5914
   -13.3871 -13.2722 -12.2700 -12.2018 -12.1301 -12.0476 -11.6412 -11.6154
   -11.4307 -11.4028  -0.3724  -0.3578  -0.3126  -0.2179  -0.1333   0.1522
     0.4206   0.5994   0.6544   0.8060   1.3265   1.4566   1.5153   1.9845
     2.0399   2.2037   2.3386   2.4636   2.6368   2.7559   2.8841   2.9999
     3.2280   3.2353   3.2377   3.3461   3.3615   3.6734   3.7399   3.9062

          k = 0.3351 0.0000 0.0000 ( 12204 PWs)   bands (ev):

   -59.7808 -59.7787 -59.7748 -59.7727 -33.8109 -33.8085 -33.8047 -33.7998
   -33.7415 -33.7137 -33.6994 -33.6908 -33.6394 -33.6347 -33.6176 -33.6049
   -12.8621 -12.7186 -12.2227 -12.0736 -12.0554 -12.0140 -11.5688 -11.5619
   -11.5197 -11.4833  -0.8515  -0.7698  -0.0118   0.0042   0.1481   0.4672
     0.5891   0.9783   0.9932   1.3063   1.3578   1.4104   1.7725   1.9186
     1.9344   2.1049   2.2001   2.2031   2.3095   2.3315   2.4759   2.4792
     2.5389   2.9029   3.1924   3.3053   3.3530   3.5609   3.7098   3.7799

          k = 0.3351 0.2650 0.0000 ( 12225 PWs)   bands (ev):

   -59.7808 -59.7787 -59.7749 -59.7728 -33.8131 -33.8106 -33.8076 -33.8028
   -33.7411 -33.7134 -33.6990 -33.6906 -33.6393 -33.6347 -33.6176 -33.6050
   -12.8001 -12.6725 -12.1865 -12.0702 -12.0357 -11.9985 -11.5530 -11.5298
   -11.4497 -11.4284  -0.8541  -0.7706  -0.0827  -0.0550   0.0207   0.2725
     0.3689   0.4973   0.5663   0.8142   0.8772   1.0760   1.4450   1.4706
     1.5854   1.6251   1.7683   1.8483   2.0374   2.4864   2.6804   2.9113
     3.1590   3.1600   3.5548   3.7354   3.7641   3.9301   3.9585   3.9652

     highest occupied level (ev):     3.9652

!    total energy              =    -922.11261506 Ry
     Harris-Foulkes estimate   =    -922.11261506 Ry
     estimated scf accuracy    <          4.1E-12 Ry

     The total energy is the sum of the following terms:

     one-electron contribution =    -585.97272254 Ry
     hartree contribution      =     333.03036108 Ry
     xc contribution           =    -174.18338928 Ry
     ewald contribution        =    -494.85432233 Ry
     Dispersion Correction     =      -0.13254199 Ry

     convergence has been achieved in  53 iterations

     Forces acting on atoms (cartesian axes, Ry/au):

     atom    1 type  1   force =    -0.00000000   -0.00990189   -0.00015897
     atom    2 type  1   force =     0.00000000    0.00990189    0.00015897
     atom    3 type  1   force =     0.00000000    0.00990189   -0.00015897
     atom    4 type  1   force =     0.00000000   -0.00990189    0.00015897
     atom    5 type  2   force =    -0.00000000    0.00228838   -0.00102687
     atom    6 type  2   force =     0.00000000   -0.00228838    0.00102687
     atom    7 type  2   force =     0.00000000   -0.00228838   -0.00102687
     atom    8 type  2   force =     0.00000000    0.00228838    0.00102687
     atom    9 type  2   force =     0.00000000    0.00223582    0.00014779
     atom   10 type  2   force =    -0.00000000   -0.00223582   -0.00014779
     atom   11 type  2   force =    -0.00000000   -0.00223582    0.00014779
     atom   12 type  2   force =     0.00000000   -0.00398994    0.00000000
     atom   13 type  2   force =     0.00000000    0.00398994    0.00000000
     atom   14 type  2   force =     0.00000000    0.00223582   -0.00014779

     Total force =     0.021665     Total SCF correction =     0.000006


     Computing stress (Cartesian axis) and pressure

          total   stress  (Ry/bohr**3)                   (kbar)     P=    0.37
   0.00006041   0.00000000   0.00000000          8.89      0.00      0.00
   0.00000000  -0.00010868   0.00000000          0.00    -15.99      0.00
   0.00000000   0.00000000   0.00005587          0.00      0.00      8.22


     number of scf cycles    =   3
     number of bfgs steps    =   2

     enthalpy old            =    -922.1124287056 Ry
     enthalpy new            =    -922.1126150619 Ry

     CASE: enthalpy_new < enthalpy_old

     new trust radius        =       0.0125694098 bohr
     new conv_thr            =            1.9E-12 Ry

     new unit-cell volume =   1215.09342 a.u.^3 (   180.05826 Ang^3 )
     density =      3.35468 g/cm^3

CELL_PARAMETERS (alat=  6.68268247)
   0.995531229   0.000000000   0.000000000
   0.000000000   1.255380604   0.000000000
   0.000000000   0.000000000   3.257818523

ATOMIC_POSITIONS (crystal)
V       -0.000000000   0.383280684   0.648173662
V        0.500000002   0.616719320   0.851826343
V        0.500000002   0.616719320   0.148173661
V        0.000000000   0.383280684   0.351826341
O        0.500000002   0.492754447   0.681205617
O        0.000000000   0.507245557   0.818794388
O        0.000000000   0.507245557   0.181205616
O        0.500000002   0.492754447   0.318794386
O        0.000000000   0.026997850   0.354198813
O        0.500000002   0.973002154   0.145801190
O        0.500000002   0.973002154   0.854198814
O        0.500000002   0.508337914   0.000000000
O        0.000000000   0.491662090   0.500000002
O        0.000000000   0.026997850   0.645801192



     Writing output data file v2o5.save/
     NEW-OLD atomic charge density approx. for the potential

     Check: negative core charge=   -0.000006
     extrapolated charge  111.96200, renormalised to  112.00000

     total cpu time spent up to now is       90.6 secs

     Self-consistent Calculation

     iteration #  1     ecut=    70.00 Ry     beta= 0.70
     Davidson diagonalization with overlap
     ethr =  1.00E-06,  avg # of iterations =  4.0

     total cpu time spent up to now is       91.8 secs

     total energy              =    -922.11277898 Ry
     Harris-Foulkes estimate   =    -922.27614479 Ry
     estimated scf accuracy    <       0.00022834 Ry

     iteration #  2     ecut=    70.00 Ry     beta= 0.70
     Davidson diagonalization with overlap
     ethr =  2.04E-07,  avg # of iterations =  5.5

     total cpu time spent up to now is       93.1 secs

     total energy              =    -922.11265724 Ry
     Harris-Foulkes estimate   =    -922.11362762 Ry
     estimated scf accuracy    <       0.00479957 Ry

     iteration #  3     ecut=    70.00 Ry     beta= 0.70
     Davidson diagonalization with overlap
     ethr =  2.04E-07,  avg # of iterations =  5.0

     total cpu time spent up to now is       94.5 secs

     total energy              =    -922.11301145 Ry
     Harris-Foulkes estimate   =    -922.11303545 Ry
     estimated scf accuracy    <       0.00011130 Ry

     iteration #  4     ecut=    70.00 Ry     beta= 0.70
     Davidson diagonalization with overlap
     ethr =  9.94E-08,  avg # of iterations =  1.0

     total cpu time spent up to now is       94.9 secs

     total energy              =    -922.11299782 Ry
     Harris-Foulkes estimate   =    -922.11301569 Ry
     estimated scf accuracy    <       0.00006715 Ry

     iteration #  5     ecut=    70.00 Ry     beta= 0.70
     Davidson diagonalization with overlap
     ethr =  6.00E-08,  avg # of iterations =  4.0

     total cpu time spent up to now is       95.8 secs

     total energy              =    -922.11301081 Ry
     Harris-Foulkes estimate   =    -922.11301124 Ry
     estimated scf accuracy    <       0.00000592 Ry

     iteration #  6     ecut=    70.00 Ry     beta= 0.70
     Davidson diagonalization with overlap
     ethr =  5.28E-09,  avg # of iterations =  4.8

     total cpu time spent up to now is       96.4 secs

     total energy              =    -922.11301060 Ry
     Harris-Foulkes estimate   =    -922.11301134 Ry
     estimated scf accuracy    <       0.00000635 Ry

     iteration #  7     ecut=    70.00 Ry     beta= 0.70
     Davidson diagonalization with overlap
     ethr =  5.28E-09,  avg # of iterations =  2.8

     total cpu time spent up to now is       97.0 secs

     total energy              =    -922.11300991 Ry
     Harris-Foulkes estimate   =    -922.11301082 Ry
     estimated scf accuracy    <       0.00000363 Ry

     iteration #  8     ecut=    70.00 Ry     beta= 0.70
     Davidson diagonalization with overlap
     ethr =  3.24E-09,  avg # of iterations =  4.0

     total cpu time spent up to now is       97.9 secs

     total energy              =    -922.11301053 Ry
     Harris-Foulkes estimate   =    -922.11301082 Ry
     estimated scf accuracy    <       0.00000093 Ry

     iteration #  9     ecut=    70.00 Ry     beta= 0.70
     Davidson diagonalization with overlap
     ethr =  8.33E-10,  avg # of iterations =  4.0

     total cpu time spent up to now is       98.6 secs

     total energy              =    -922.11301065 Ry
     Harris-Foulkes estimate   =    -922.11301066 Ry
     estimated scf accuracy    <       0.00000003 Ry

     iteration # 10     ecut=    70.00 Ry     beta= 0.70
     Davidson diagonalization with overlap
     ethr =  2.28E-11,  avg # of iterations =  5.8

     total cpu time spent up to now is       99.8 secs

     total energy              =    -922.11301067 Ry
     Harris-Foulkes estimate   =    -922.11301068 Ry
     estimated scf accuracy    <       0.00000007 Ry

     iteration # 11     ecut=    70.00 Ry     beta= 0.70
     Davidson diagonalization with overlap
     ethr =  2.28E-11,  avg # of iterations =  4.0

     total cpu time spent up to now is      100.6 secs

     total energy              =    -922.11301067 Ry
     Harris-Foulkes estimate   =    -922.11301067 Ry
     estimated scf accuracy    <          9.1E-09 Ry

     iteration # 12     ecut=    70.00 Ry     beta= 0.70
     Davidson diagonalization with overlap
     ethr =  8.11E-12,  avg # of iterations =  4.0

     total cpu time spent up to now is      101.3 secs

     total energy              =    -922.11301067 Ry
     Harris-Foulkes estimate   =    -922.11301067 Ry
     estimated scf accuracy    <          2.1E-09 Ry

     iteration # 13     ecut=    70.00 Ry     beta= 0.70
     Davidson diagonalization with overlap
     ethr =  1.87E-12,  avg # of iterations =  4.5

     total cpu time spent up to now is      102.3 secs

     total energy              =    -922.11301067 Ry
     Harris-Foulkes estimate   =    -922.11301067 Ry
     estimated scf accuracy    <          1.4E-09 Ry

     iteration # 14     ecut=    70.00 Ry     beta= 0.70
     Davidson diagonalization with overlap
     ethr =  1.26E-12,  avg # of iterations =  1.0

     total cpu time spent up to now is      102.8 secs

     total energy              =    -922.11301067 Ry
     Harris-Foulkes estimate   =    -922.11301067 Ry
     estimated scf accuracy    <          9.0E-10 Ry

     iteration # 15     ecut=    70.00 Ry     beta= 0.70
     Davidson diagonalization with overlap
     ethr =  8.06E-13,  avg # of iterations =  4.0

     total cpu time spent up to now is      103.7 secs

     total energy              =    -922.11301067 Ry
     Harris-Foulkes estimate   =    -922.11301067 Ry
     estimated scf accuracy    <          7.2E-10 Ry

     iteration # 16     ecut=    70.00 Ry     beta= 0.70
     Davidson diagonalization with overlap
     ethr =  6.40E-13,  avg # of iterations =  1.0

     total cpu time spent up to now is      104.2 secs

     total energy              =    -922.11301067 Ry
     Harris-Foulkes estimate   =    -922.11301067 Ry
     estimated scf accuracy    <          4.7E-10 Ry

     iteration # 17     ecut=    70.00 Ry     beta= 0.70
     Davidson diagonalization with overlap
     ethr =  4.20E-13,  avg # of iterations =  3.0

     total cpu time spent up to now is      104.8 secs

     total energy              =    -922.11301067 Ry
     Harris-Foulkes estimate   =    -922.11301067 Ry
     estimated scf accuracy    <          1.4E-10 Ry

     iteration # 18     ecut=    70.00 Ry     beta= 0.70
     Davidson diagonalization with overlap
     ethr =  1.28E-13,  avg # of iterations =  4.0

     total cpu time spent up to now is      105.8 secs

     total energy              =    -922.11301067 Ry
     Harris-Foulkes estimate   =    -922.11301067 Ry
     estimated scf accuracy    <          2.0E-10 Ry

     iteration # 19     ecut=    70.00 Ry     beta= 0.70
     Davidson diagonalization with overlap
     ethr =  1.28E-13,  avg # of iterations =  1.0

     total cpu time spent up to now is      106.3 secs

     total energy              =    -922.11301067 Ry
     Harris-Foulkes estimate   =    -922.11301067 Ry
     estimated scf accuracy    <          1.5E-10 Ry

     iteration # 20     ecut=    70.00 Ry     beta= 0.70
     Davidson diagonalization with overlap
     ethr =  1.28E-13,  avg # of iterations =  2.5

     total cpu time spent up to now is      106.8 secs

     total energy              =    -922.11301067 Ry
     Harris-Foulkes estimate   =    -922.11301067 Ry
     estimated scf accuracy    <          4.6E-11 Ry

     iteration # 21     ecut=    70.00 Ry     beta= 0.70
     Davidson diagonalization with overlap
     ethr =  1.00E-13,  avg # of iterations =  1.0

     total cpu time spent up to now is      107.3 secs

     total energy              =    -922.11301067 Ry
     Harris-Foulkes estimate   =    -922.11301067 Ry
     estimated scf accuracy    <          4.1E-11 Ry

     iteration # 22     ecut=    70.00 Ry     beta= 0.70
     Davidson diagonalization with overlap
     ethr =  1.00E-13,  avg # of iterations =  1.0

     total cpu time spent up to now is      107.8 secs

     total energy              =    -922.11301067 Ry
     Harris-Foulkes estimate   =    -922.11301067 Ry
     estimated scf accuracy    <          3.1E-11 Ry

     iteration # 23     ecut=    70.00 Ry     beta= 0.70
     Davidson diagonalization with overlap
     ethr =  1.00E-13,  avg # of iterations =  1.0

     total cpu time spent up to now is      108.3 secs

     total energy              =    -922.11301067 Ry
     Harris-Foulkes estimate   =    -922.11301067 Ry
     estimated scf accuracy    <          3.0E-11 Ry

     iteration # 24     ecut=    70.00 Ry     beta= 0.70
     Davidson diagonalization with overlap
     ethr =  1.00E-13,  avg # of iterations =  1.0

     total cpu time spent up to now is      108.7 secs

     total energy              =    -922.11301067 Ry
     Harris-Foulkes estimate   =    -922.11301067 Ry
     estimated scf accuracy    <          2.3E-11 Ry

     iteration # 25     ecut=    70.00 Ry     beta= 0.70
     Davidson diagonalization with overlap
     ethr =  1.00E-13,  avg # of iterations =  1.0

     total cpu time spent up to now is      109.2 secs

     total energy              =    -922.11301067 Ry
     Harris-Foulkes estimate   =    -922.11301067 Ry
     estimated scf accuracy    <          2.2E-11 Ry

     iteration # 26     ecut=    70.00 Ry     beta= 0.70
     Davidson diagonalization with overlap
     ethr =  1.00E-13,  avg # of iterations =  1.0

     total cpu time spent up to now is      109.7 secs

     total energy              =    -922.11301067 Ry
     Harris-Foulkes estimate   =    -922.11301067 Ry
     estimated scf accuracy    <          2.0E-11 Ry

     iteration # 27     ecut=    70.00 Ry     beta= 0.70
     Davidson diagonalization with overlap
     ethr =  1.00E-13,  avg # of iterations =  1.0

     total cpu time spent up to now is      110.2 secs

[...]

     iteration # 16     ecut=    70.00 Ry     beta= 0.70
     Davidson diagonalization with overlap
     ethr =  2.25E-09,  avg # of iterations =  1.0

     total cpu time spent up to now is      675.7 secs

     total energy              =    -922.10948577 Ry
     Harris-Foulkes estimate   =    -922.10948656 Ry
     estimated scf accuracy    <       0.00000410 Ry

     iteration # 17     ecut=    70.00 Ry     beta= 0.70
     Davidson diagonalization with overlap
     ethr =  2.25E-09,  avg # of iterations =  3.5

     total cpu time spent up to now is      676.1 secs

     total energy              =    -922.10948600 Ry
     Harris-Foulkes estimate   =    -922.10948605 Ry
     estimated scf accuracy    <       0.00000049 Ry

     iteration # 18     ecut=    70.00 Ry     beta= 0.70
     Davidson diagonalization with overlap
     ethr =  4.37E-10,  avg # of iterations =  4.5

     total cpu time spent up to now is      676.7 secs

     total energy              =    -922.10948609 Ry
     Harris-Foulkes estimate   =    -922.10948608 Ry
     estimated scf accuracy    <       0.00000007 Ry

     iteration # 19     ecut=    70.00 Ry     beta= 0.70
     Davidson diagonalization with overlap
     ethr =  6.03E-11,  avg # of iterations =  2.8

     total cpu time spent up to now is      677.1 secs

     total energy              =    -922.10948611 Ry
     Harris-Foulkes estimate   =    -922.10948610 Ry
     estimated scf accuracy    <       0.00000008 Ry

     iteration # 20     ecut=    70.00 Ry     beta= 0.70
     Davidson diagonalization with overlap
     ethr =  6.03E-11,  avg # of iterations =  3.2

     total cpu time spent up to now is      677.5 secs

     total energy              =    -922.10948610 Ry
     Harris-Foulkes estimate   =    -922.10948611 Ry
     estimated scf accuracy    <       0.00000013 Ry

     iteration # 21     ecut=    70.00 Ry     beta= 0.70
     Davidson diagonalization with overlap
     ethr =  6.03E-11,  avg # of iterations =  1.0

     total cpu time spent up to now is      677.8 secs

     total energy              =    -922.10948610 Ry
     Harris-Foulkes estimate   =    -922.10948610 Ry
     estimated scf accuracy    <       0.00000009 Ry

     iteration # 22     ecut=    70.00 Ry     beta= 0.70
     Davidson diagonalization with overlap
     ethr =  6.03E-11,  avg # of iterations =  1.0

     total cpu time spent up to now is      678.1 secs

     total energy              =    -922.10948609 Ry
     Harris-Foulkes estimate   =    -922.10948610 Ry
     estimated scf accuracy    <       0.00000008 Ry

     iteration # 23     ecut=    70.00 Ry     beta= 0.70
     Davidson diagonalization with overlap
     ethr =  6.03E-11,  avg # of iterations =  1.0

     total cpu time spent up to now is      678.4 secs

     total energy              =    -922.10948608 Ry
     Harris-Foulkes estimate   =    -922.10948609 Ry
     estimated scf accuracy    <       0.00000005 Ry

     iteration # 24     ecut=    70.00 Ry     beta= 0.70
     Davidson diagonalization with overlap
     ethr =  4.77E-11,  avg # of iterations =  4.0

     total cpu time spent up to now is      678.9 secs

     total energy              =    -922.10948609 Ry
     Harris-Foulkes estimate   =    -922.10948609 Ry
     estimated scf accuracy    <          5.0E-09 Ry

     iteration # 25     ecut=    70.00 Ry     beta= 0.70
     Davidson diagonalization with overlap
     ethr =  4.50E-12,  avg # of iterations =  4.8

     total cpu time spent up to now is      679.5 secs

     total energy              =    -922.10948609 Ry
     Harris-Foulkes estimate   =    -922.10948609 Ry
     estimated scf accuracy    <          5.2E-09 Ry

     iteration # 26     ecut=    70.00 Ry     beta= 0.70
     Davidson diagonalization with overlap
     ethr =  4.50E-12,  avg # of iterations =  4.0

     total cpu time spent up to now is      680.0 secs

     total energy              =    -922.10948609 Ry
     Harris-Foulkes estimate   =    -922.10948609 Ry
     estimated scf accuracy    <          1.4E-09 Ry

     iteration # 27     ecut=    70.00 Ry     beta= 0.70
     Davidson diagonalization with overlap
     ethr =  1.21E-12,  avg # of iterations =  6.2

     total cpu time spent up to now is      681.0 secs

     total energy              =    -922.10948609 Ry
     Harris-Foulkes estimate   =    -922.10948610 Ry
     estimated scf accuracy    <       0.00000007 Ry

     iteration # 28     ecut=    70.00 Ry     beta= 0.70
     Davidson diagonalization with overlap
     ethr =  1.21E-12,  avg # of iterations =  5.0

     total cpu time spent up to now is      681.8 secs

     total energy              =    -922.10948609 Ry
     Harris-Foulkes estimate   =    -922.10948609 Ry
     estimated scf accuracy    <       0.00000003 Ry

     iteration # 29     ecut=    70.00 Ry     beta= 0.70
     Davidson diagonalization with overlap
     ethr =  1.21E-12,  avg # of iterations =  4.0

     total cpu time spent up to now is      682.4 secs

     total energy              =    -922.10948609 Ry
     Harris-Foulkes estimate   =    -922.10948609 Ry
     estimated scf accuracy    <          9.2E-09 Ry

     iteration # 30     ecut=    70.00 Ry     beta= 0.70
     Davidson diagonalization with overlap
     ethr =  1.21E-12,  avg # of iterations =  1.0

     total cpu time spent up to now is      682.8 secs

     total energy              =    -922.10948609 Ry
     Harris-Foulkes estimate   =    -922.10948609 Ry
     estimated scf accuracy    <       0.00000001 Ry

     iteration # 31     ecut=    70.00 Ry     beta= 0.70
     Davidson diagonalization with overlap
     ethr =  1.21E-12,  avg # of iterations =  2.0

     total cpu time spent up to now is      683.1 secs

     total energy              =    -922.10948609 Ry
     Harris-Foulkes estimate   =    -922.10948609 Ry
     estimated scf accuracy    <       0.00000001 Ry

     iteration # 32     ecut=    70.00 Ry     beta= 0.70
     Davidson diagonalization with overlap
     ethr =  1.21E-12,  avg # of iterations =  4.5

     total cpu time spent up to now is      683.8 secs

     total energy              =    -922.10948609 Ry
     Harris-Foulkes estimate   =    -922.10948610 Ry
     estimated scf accuracy    <       0.00000004 Ry

     iteration # 33     ecut=    70.00 Ry     beta= 0.70
     Davidson diagonalization with overlap
     ethr =  1.21E-12,  avg # of iterations =  4.0

     total cpu time spent up to now is      684.3 secs

     total energy              =    -922.10948609 Ry
     Harris-Foulkes estimate   =    -922.10948609 Ry
     estimated scf accuracy    <       0.00000002 Ry

     iteration # 34     ecut=    70.00 Ry     beta= 0.70
     Davidson diagonalization with overlap
     ethr =  1.21E-12,  avg # of iterations =  5.0

     total cpu time spent up to now is      685.1 secs

     total energy              =    -922.10948609 Ry
     Harris-Foulkes estimate   =    -922.10948609 Ry
     estimated scf accuracy    <          1.6E-09 Ry

     iteration # 35     ecut=    70.00 Ry     beta= 0.70
     Davidson diagonalization with overlap
     ethr =  1.21E-12,  avg # of iterations =  1.0

     total cpu time spent up to now is      685.4 secs

     total energy              =    -922.10948609 Ry
     Harris-Foulkes estimate   =    -922.10948609 Ry
     estimated scf accuracy    <          9.2E-10 Ry

     iteration # 36     ecut=    70.00 Ry     beta= 0.70
     Davidson diagonalization with overlap
     ethr =  8.20E-13,  avg # of iterations =  3.2

     total cpu time spent up to now is      685.8 secs

     total energy              =    -922.10948609 Ry
     Harris-Foulkes estimate   =    -922.10948609 Ry
     estimated scf accuracy    <          3.3E-11 Ry

     iteration # 37     ecut=    70.00 Ry     beta= 0.70
     Davidson diagonalization with overlap
     ethr =  1.00E-13,  avg # of iterations =  5.0

     total cpu time spent up to now is      686.5 secs

     total energy              =    -922.10948609 Ry
     Harris-Foulkes estimate   =    -922.10948609 Ry
     estimated scf accuracy    <          1.9E-11 Ry

     iteration # 38     ecut=    70.00 Ry     beta= 0.70
     Davidson diagonalization with overlap
     ethr =  1.00E-13,  avg # of iterations =  1.0

     total cpu time spent up to now is      686.8 secs

     total energy              =    -922.10948609 Ry
     Harris-Foulkes estimate   =    -922.10948609 Ry
     estimated scf accuracy    <          1.5E-11 Ry

     iteration # 39     ecut=    70.00 Ry     beta= 0.70
     Davidson diagonalization with overlap
     ethr =  1.00E-13,  avg # of iterations =  1.0

     total cpu time spent up to now is      687.1 secs

     total energy              =    -922.10948609 Ry
     Harris-Foulkes estimate   =    -922.10948609 Ry
     estimated scf accuracy    <          2.3E-12 Ry

     iteration # 40     ecut=    70.00 Ry     beta= 0.70
     Davidson diagonalization with overlap
     ethr =  1.00E-13,  avg # of iterations =  3.0

     total cpu time spent up to now is      687.5 secs

     total energy              =    -922.10948609 Ry
     Harris-Foulkes estimate   =    -922.10948609 Ry
     estimated scf accuracy    <          1.2E-11 Ry

     iteration # 41     ecut=    70.00 Ry     beta= 0.70
     Davidson diagonalization with overlap
     ethr =  1.00E-13,  avg # of iterations =  3.8

     total cpu time spent up to now is      687.9 secs

     total energy              =    -922.10948609 Ry
     Harris-Foulkes estimate   =    -922.10948609 Ry
     estimated scf accuracy    <          6.1E-11 Ry

     iteration # 42     ecut=    70.00 Ry     beta= 0.70
     Davidson diagonalization with overlap
     ethr =  1.00E-13,  avg # of iterations =  1.0

     total cpu time spent up to now is      688.2 secs

     total energy              =    -922.10948609 Ry
     Harris-Foulkes estimate   =    -922.10948609 Ry
     estimated scf accuracy    <          7.8E-11 Ry

     iteration # 43     ecut=    70.00 Ry     beta= 0.70
     Davidson diagonalization with overlap
     ethr =  1.00E-13,  avg # of iterations =  1.0

     total cpu time spent up to now is      688.5 secs

     total energy              =    -922.10948609 Ry
     Harris-Foulkes estimate   =    -922.10948609 Ry
     estimated scf accuracy    <          7.8E-11 Ry

     iteration # 44     ecut=    70.00 Ry     beta= 0.70
     Davidson diagonalization with overlap
     ethr =  1.00E-13,  avg # of iterations =  1.0

     total cpu time spent up to now is      688.9 secs

     total energy              =    -922.10948609 Ry
     Harris-Foulkes estimate   =    -922.10948609 Ry
     estimated scf accuracy    <          7.8E-11 Ry

     iteration # 45     ecut=    70.00 Ry     beta= 0.70
     Davidson diagonalization with overlap
     ethr =  1.00E-13,  avg # of iterations =  1.0

     total cpu time spent up to now is      689.2 secs

     total energy              =    -922.10948609 Ry
     Harris-Foulkes estimate   =    -922.10948609 Ry
     estimated scf accuracy    <          8.9E-11 Ry

     iteration # 46     ecut=    70.00 Ry     beta= 0.70
     Davidson diagonalization with overlap
     ethr =  1.00E-13,  avg # of iterations =  1.0

     total cpu time spent up to now is      689.5 secs

     total energy              =    -922.10948609 Ry
     Harris-Foulkes estimate   =    -922.10948609 Ry
     estimated scf accuracy    <          5.7E-11 Ry

     iteration # 47     ecut=    70.00 Ry     beta= 0.70
     Davidson diagonalization with overlap
     ethr =  1.00E-13,  avg # of iterations =  1.0

     total cpu time spent up to now is      689.8 secs

     total energy              =    -922.10948609 Ry
     Harris-Foulkes estimate   =    -922.10948609 Ry
     estimated scf accuracy    <          4.4E-11 Ry

     iteration # 48     ecut=    70.00 Ry     beta= 0.70
     Davidson diagonalization with overlap
     ethr =  1.00E-13,  avg # of iterations =  1.0

     total cpu time spent up to now is      690.1 secs

     total energy              =    -922.10948609 Ry
     Harris-Foulkes estimate   =    -922.10948609 Ry
     estimated scf accuracy    <          3.8E-11 Ry

     iteration # 49     ecut=    70.00 Ry     beta= 0.70
     Davidson diagonalization with overlap
     ethr =  1.00E-13,  avg # of iterations =  3.0

     total cpu time spent up to now is      690.5 secs

     total energy              =    -922.10948609 Ry
     Harris-Foulkes estimate   =    -922.10948609 Ry
     estimated scf accuracy    <          5.2E-12 Ry

     iteration # 50     ecut=    70.00 Ry     beta= 0.70
     Davidson diagonalization with overlap
     ethr =  1.00E-13,  avg # of iterations =  1.0

     total cpu time spent up to now is      690.8 secs

     total energy              =    -922.10948609 Ry
     Harris-Foulkes estimate   =    -922.10948609 Ry
     estimated scf accuracy    <          1.9E-12 Ry

     iteration # 51     ecut=    70.00 Ry     beta= 0.70
     Davidson diagonalization with overlap
     ethr =  1.00E-13,  avg # of iterations =  1.0

     total cpu time spent up to now is      691.1 secs

     End of self-consistent calculation

          k = 0.0000 0.0000 0.0000 ( 11811 PWs)   bands (ev):

   -59.6201 -59.6178 -59.6087 -59.6067 -33.6569 -33.6544 -33.6477 -33.6418
   -33.5709 -33.5163 -33.4877 -33.4582 -33.4556 -33.4358 -33.4226 -33.4200
   -13.2495 -13.1217 -12.1449 -12.0196 -11.9238 -11.8714 -11.4940 -11.4836
   -11.3314 -11.3014  -0.0911  -0.0767  -0.0669   0.0599   0.2474   0.7095
     1.4027   1.4466   1.6418   1.7225   1.9408   1.9753   2.2187   2.2844
     2.3430   2.3469   2.4231   2.4781   2.5061   2.6159   2.6893   2.7855
     2.8980   3.2903   3.3598   3.3882   3.4243   3.6331   3.7030   3.7580

          k = 0.0000 0.2702 0.0000 ( 11850 PWs)   bands (ev):

   -59.6201 -59.6180 -59.6086 -59.6066 -33.6595 -33.6569 -33.6521 -33.6462
   -33.5703 -33.5157 -33.4876 -33.4580 -33.4554 -33.4358 -33.4225 -33.4200
   -13.1594 -13.0442 -12.0640 -11.9837 -11.9191 -11.8493 -11.4950 -11.4713
   -11.2817 -11.2579  -0.1487  -0.1345  -0.1137   0.0071   0.0561   0.2812
     0.5797   0.7619   0.7670   0.9379   1.4228   1.6083   1.6660   2.1194
     2.1741   2.3899   2.5402   2.6479   2.8271   2.9078   3.0544   3.1573
     3.3906   3.4050   3.4720   3.5672   3.5743   3.8865   3.9596   4.1249

          k = 0.3344 0.0000 0.0000 ( 11824 PWs)   bands (ev):

   -59.6152 -59.6133 -59.6096 -59.6076 -33.6507 -33.6483 -33.6450 -33.6405
   -33.5673 -33.5393 -33.5262 -33.5166 -33.4679 -33.4626 -33.4463 -33.4350
   -12.6595 -12.5113 -12.0335 -11.8589 -11.8494 -11.8188 -11.4336 -11.4167
   -11.3994 -11.3427  -0.6233  -0.5459   0.2061   0.2134   0.3501   0.6774
     0.8027   1.2101   1.2168   1.5296   1.5489   1.5962   1.9812   2.0974
     2.1026   2.3033   2.3451   2.4470   2.4563   2.5314   2.6883   2.6928
     2.7078   3.0994   3.3460   3.4369   3.5013   3.6859   3.8818   3.9843

          k = 0.3344 0.2702 0.0000 ( 11873 PWs)   bands (ev):

   -59.6154 -59.6132 -59.6097 -59.6077 -33.6537 -33.6513 -33.6489 -33.6444
   -33.5669 -33.5390 -33.5257 -33.5162 -33.4678 -33.4626 -33.4464 -33.4350
   -12.5808 -12.4519 -11.9822 -11.8545 -11.8276 -11.7999 -11.4063 -11.3852
   -11.3030 -11.2869  -0.6276  -0.5474   0.1229   0.1301   0.2038   0.4126
     0.5509   0.6857   0.7072   0.9403   0.9892   1.2756   1.5579   1.6272
     1.7582   1.7661   1.8997   1.9937   2.1924   2.6497   2.8791   3.0777
     3.3413   3.3700   3.7766   3.9464   3.9855   4.1438   4.1684   4.1735

     highest occupied level (ev):     4.1735

!    total energy              =    -922.10948609 Ry
     Harris-Foulkes estimate   =    -922.10948609 Ry
     estimated scf accuracy    <          4.4E-14 Ry

     The total energy is the sum of the following terms:

     one-electron contribution =    -573.03018905 Ry
     hartree contribution      =     327.28722636 Ry
     xc contribution           =    -174.17372443 Ry
     ewald contribution        =    -502.05827651 Ry
     Dispersion Correction     =      -0.13452245 Ry

     convergence has been achieved in  51 iterations

     Forces acting on atoms (cartesian axes, Ry/au):

     atom    1 type  1   force =    -0.00000000    0.00013834   -0.00001889
     atom    2 type  1   force =     0.00000000   -0.00013834    0.00001889
     atom    3 type  1   force =     0.00000000   -0.00013834   -0.00001889
     atom    4 type  1   force =     0.00000000    0.00013834    0.00001889
     atom    5 type  2   force =    -0.00000000   -0.00005656   -0.00004532
     atom    6 type  2   force =     0.00000000    0.00005656    0.00004532
     atom    7 type  2   force =     0.00000000    0.00005656   -0.00004532
     atom    8 type  2   force =     0.00000000   -0.00005656    0.00004532
     atom    9 type  2   force =     0.00000000   -0.00009809    0.00003610
     atom   10 type  2   force =    -0.00000000    0.00009809   -0.00003610
     atom   11 type  2   force =     0.00000000    0.00009809    0.00003610
     atom   12 type  2   force =    -0.00000000   -0.00000733    0.00000000
     atom   13 type  2   force =     0.00000000    0.00000733   -0.00000000
     atom   14 type  2   force =     0.00000000   -0.00009809   -0.00003610

     Total force =     0.000378     Total SCF correction =     0.000001


     Computing stress (Cartesian axis) and pressure

          total   stress  (Ry/bohr**3)                   (kbar)     P=   -5.75
  -0.00002678   0.00000000   0.00000000         -3.94      0.00      0.00
   0.00000000  -0.00006322   0.00000000          0.00     -9.30      0.00
   0.00000000   0.00000000  -0.00002720          0.00      0.00     -4.00


     Writing output data file v2o5.save/

     init_run     :      0.98s CPU      1.01s WALL (       2 calls)
     electrons    :    627.54s CPU    642.74s WALL (      29 calls)
     update_pot   :     12.92s CPU     12.96s WALL (      27 calls)
     forces       :     12.96s CPU     13.15s WALL (      29 calls)
     stress       :     20.96s CPU     21.02s WALL (      29 calls)

     Called by init_run:
     wfcinit      :      0.43s CPU      0.44s WALL (       2 calls)
     potinit      :      0.17s CPU      0.17s WALL (       2 calls)
     hinit0       :      0.35s CPU      0.35s WALL (       2 calls)

     Called by electrons:
     c_bands      :    588.80s CPU    602.52s WALL (     931 calls)
     sum_band     :     31.25s CPU     32.35s WALL (     931 calls)
     v_of_rho     :      3.54s CPU      3.55s WALL (     944 calls)
     mix_rho      :      2.13s CPU      2.15s WALL (     931 calls)

     Called by c_bands:
     init_us_2    :      5.36s CPU      6.07s WALL (    7688 calls)
     cegterg      :    570.31s CPU    582.24s WALL (    3724 calls)

     Called by sum_band:

     Called by *egterg:
     h_psi        :    296.87s CPU    303.70s WALL (   14895 calls)
     g_psi        :      0.94s CPU      0.94s WALL (   11163 calls)
     cdiaghg      :    117.48s CPU    120.15s WALL (   14715 calls)

     Called by h_psi:
     h_psi:pot    :    295.04s CPU    301.74s WALL (   14895 calls)
     h_psi:calbec :     86.49s CPU     89.01s WALL (   14895 calls)
     vloc_psi     :    142.04s CPU    145.97s WALL (   14895 calls)
     add_vuspsi   :     66.44s CPU     66.70s WALL (   14895 calls)

     General routines
     calbec       :     91.37s CPU     94.10s WALL (   15475 calls)
     fft          :      2.73s CPU      2.74s WALL (   10179 calls)
     ffts         :      0.22s CPU      0.23s WALL (     931 calls)
     fftw         :    156.21s CPU    160.59s WALL ( 1288272 calls)

     Parallel routines
     fft_scatt_xy :      9.98s CPU     10.23s WALL ( 1299382 calls)
     fft_scatt_yz :     80.43s CPU     82.76s WALL ( 1299382 calls)

     PWSCF        :  11m16.14s CPU  11m31.83s WALL


   This run was terminated on:  20:36: 7  17May2024            

=------------------------------------------------------------------------------=
   JOB DONE.
=------------------------------------------------------------------------------=
