
     Program PWSCF v.6.4.1 starts on 18May2024 at 23: 6:29 

     This program is part of the open-source Quantum ESPRESSO suite
     for quantum simulation of materials; please cite
         "P. Giannozzi et al., J. Phys.:Condens. Matter 21 395502 (2009);
         "P. Giannozzi et al., J. Phys.:Condens. Matter 29 465901 (2017);
          URL http://www.quantum-espresso.org", 
     in publications or presentations arising from this work. More details at
     http://www.quantum-espresso.org/quote

     Parallel version (MPI), running on    32 processors

     MPI processes distributed on     1 nodes
     R & G space division:  proc/nbgrp/npool/nimage =      32
     Reading input from v2o5.vc.in
Warning: card O       -0.000000000   0.048914545   0.643203052 ignored

     Current dimensions of program PWSCF are:
     Max number of different atomic species (ntypx) = 10
     Max number of k-points (npk) =  40000
     Max angular momentum in pseudopotentials (lmaxx) =  3

     IMPORTANT: XC functional enforced from input :
     Exchange-correlation      = VDW-DF ( 1  4  4  0 1 0)
     Any further DFT definition will be discarded
     Please, verify this is what you really want


     Subspace diagonalization in iterative solution of the eigenvalue problem:
     one sub-group per band group will be used
     ELPA distributed-memory algorithm (size of sub-group:  4*  4 procs)


     Parallelization info
     --------------------
     sticks:   dense  smooth     PW     G-vecs:    dense   smooth      PW
     Min          59      59     16                 5569     5569     780
     Max          60      60     17                 5582     5582     789
     Sum        1915    1915    519               178503   178503   25047



     bravais-lattice index     =            8
     lattice parameter (alat)  =       6.7676  a.u.
     unit-cell volume          =    1320.1235 (a.u.)^3
     number of atoms/cell      =           14
     number of atomic types    =            2
     number of electrons       =       112.00
     number of Kohn-Sham states=           56
     kinetic-energy cutoff     =     100.0000  Ry
     charge density cutoff     =     400.0000  Ry
     convergence threshold     =      1.0E-10
     mixing beta               =       0.7000
     number of iterations used =            8  plain     mixing
     Exchange-correlation      = VDW-DF ( 1  4  4  0 1 0)
     nstep                     =          500


     celldm(1)=   6.767583  celldm(2)=   1.308375  celldm(3)=   3.255230
     celldm(4)=   0.000000  celldm(5)=   0.000000  celldm(6)=   0.000000

     crystal axes: (cart. coord. in units of alat)
               a(1) = (   1.000000   0.000000   0.000000 )  
               a(2) = (   0.000000   1.308375   0.000000 )  
               a(3) = (   0.000000   0.000000   3.255230 )  

     reciprocal axes: (cart. coord. in units 2 pi/alat)
               b(1) = (  1.000000  0.000000  0.000000 )  
               b(2) = (  0.000000  0.764307  0.000000 )  
               b(3) = (  0.000000  0.000000  0.307198 )  


     PseudoPot. # 1 for V  read from file:
     /home/mpicuntureo/pseudos/v.nc.upf
     MD5 check sum: 40fb93c06b4f9d8c28c5ccd071294a04
     Pseudo is Norm-conserving + core correction, Zval = 13.0
     Generated using ONCVPSP code by D. R. Hamann
     Using radial grid of 1536 points,  6 beta functions with: 
                l(1) =   0
                l(2) =   0
                l(3) =   1
                l(4) =   1
                l(5) =   2
                l(6) =   2

     PseudoPot. # 2 for O  read from file:
     /home/mpicuntureo/pseudos/o.nc.upf
     MD5 check sum: 3e3f909f7470e8921608ab6b1f57bbae
     Pseudo is Norm-conserving + core correction, Zval =  6.0
     Generated using ONCVPSP code by D. R. Hamann
     Using radial grid of  936 points,  5 beta functions with: 
                l(1) =   0
                l(2) =   0
                l(3) =   1
                l(4) =   1
                l(5) =   2

     vdW kernel table read from file vdW_kernel_table
     MD5 check sum: 8c4337f4b28e1601c069d7ef7b6561bc

     atomic species   valence    mass     pseudopotential
        V             13.00    50.94150     V ( 1.00)
        O              6.00    15.99940     O ( 1.00)

      8 Sym. Ops., with inversion, found ( 4 have fractional translation)



   Cartesian axes

     site n.     atom                  positions (alat units)
         1           V   tau(   1) = (   0.0000000   0.5083212   2.1085108  )
         2           V   tau(   2) = (   0.5000000   0.8000533   2.7743339  )
         3           V   tau(   3) = (   0.5000000   0.8000533   0.4808959  )
         4           V   tau(   4) = (   0.0000000   0.5083212   1.1467190  )
         5           O   tau(   5) = (   0.5000000   0.6458297   2.2175314  )
         6           O   tau(   6) = (   0.0000000   0.6625449   2.6653133  )
         7           O   tau(   7) = (   0.0000000   0.6625449   0.5899165  )
         8           O   tau(   8) = (   0.5000000   0.6458297   1.0376984  )
         9           O   tau(   9) = (   0.0000000   0.0639985   1.1614561  )
        10           O   tau(  10) = (   0.5000000   1.2443760   0.4661588  )
        11           O   tau(  11) = (   0.5000000   1.2443760   2.7890710  )
        12           O   tau(  12) = (   0.5000000   0.6549630   0.0000000  )
        13           O   tau(  13) = (   0.0000000   0.6534115   1.6276149  )
        14           O   tau(  14) = (   0.0000000   0.0639985   2.0937737  )

     number of k points=     4
                       cart. coord. in units 2pi/alat
        k(    1) = (   0.0000000   0.0000000   0.0000000), wk =   0.2222222
        k(    2) = (   0.0000000   0.2547691   0.0000000), wk =   0.4444444
        k(    3) = (   0.3333333   0.0000000   0.0000000), wk =   0.4444444
        k(    4) = (   0.3333333   0.2547691   0.0000000), wk =   0.8888889

     Dense  grid:   178503 G-vectors     FFT dimensions: (  48,  60, 144)

     Estimated max dynamical RAM per process >      20.59 MB

     Estimated total dynamical RAM >     658.82 MB

     Initial potential from superposition of free atoms

     starting charge  111.99579, renormalised to  112.00000


     %%%%%%%%%%%%%%%%%%%%%%%%%%%%%%%%%%%%%%%%%%%%%%%%%%%%%%%%%%%%%%%%%%%%%%%%
     %                                                                      %
     % You are using vdW-DF, which was implemented by the Thonhauser group. %
     % Please cite the following two papers that made this development      %
     % possible and the two reviews that describe the various versions:     %
     %                                                                      %
     %   T. Thonhauser et al., PRL 115, 136402 (2015).                      %
     %   T. Thonhauser et al., PRB 76, 125112 (2007).                       %
     %   K. Berland et al., Rep. Prog. Phys. 78, 066501 (2015).             %
     %   D.C. Langreth et al., J. Phys.: Condens. Matter 21, 084203 (2009). %
     %                                                                      %
     %                                                                      %
     % If you are calculating the stress with vdW-DF, please also cite:     %
     %                                                                      %
     %   R. Sabatini et al., J. Phys.: Condens. Matter 24, 424209 (2012).   %
     %                                                                      %
     %%%%%%%%%%%%%%%%%%%%%%%%%%%%%%%%%%%%%%%%%%%%%%%%%%%%%%%%%%%%%%%%%%%%%%%%


     Starting wfcs are   80 randomized atomic wfcs

     total cpu time spent up to now is        1.7 secs

     Self-consistent Calculation

     iteration #  1     ecut=   100.00 Ry     beta= 0.70
     Davidson diagonalization with overlap
     ethr =  1.00E-02,  avg # of iterations =  2.0

     total cpu time spent up to now is        2.8 secs

     total energy              =    -920.61458994 Ry
     Harris-Foulkes estimate   =    -927.68252118 Ry
     estimated scf accuracy    <       8.84070560 Ry

     iteration #  2     ecut=   100.00 Ry     beta= 0.70
     Davidson diagonalization with overlap
     ethr =  7.89E-03,  avg # of iterations =  6.2

     total cpu time spent up to now is        5.2 secs

     total energy              =    -911.04749430 Ry
     Harris-Foulkes estimate   =    -945.50623560 Ry
     estimated scf accuracy    <     153.62129902 Ry

     iteration #  3     ecut=   100.00 Ry     beta= 0.70
     Davidson diagonalization with overlap
     ethr =  7.89E-03,  avg # of iterations =  5.8

     total cpu time spent up to now is        7.4 secs

     total energy              =    -925.69977376 Ry
     Harris-Foulkes estimate   =    -926.65850361 Ry
     estimated scf accuracy    <       3.01747876 Ry

     iteration #  4     ecut=   100.00 Ry     beta= 0.70
     Davidson diagonalization with overlap
     ethr =  2.69E-03,  avg # of iterations =  4.0

     total cpu time spent up to now is        8.7 secs

     total energy              =    -925.95796606 Ry
     Harris-Foulkes estimate   =    -926.10792961 Ry
     estimated scf accuracy    <       0.88101596 Ry

     iteration #  5     ecut=   100.00 Ry     beta= 0.70
     Davidson diagonalization with overlap
     ethr =  7.87E-04,  avg # of iterations =  3.5

     total cpu time spent up to now is        9.8 secs

     total energy              =    -925.87719906 Ry
     Harris-Foulkes estimate   =    -926.02009286 Ry
     estimated scf accuracy    <       0.47689169 Ry

     iteration #  6     ecut=   100.00 Ry     beta= 0.70
     Davidson diagonalization with overlap
     ethr =  4.26E-04,  avg # of iterations =  4.2

     total cpu time spent up to now is       11.5 secs

     total energy              =    -926.02816371 Ry
     Harris-Foulkes estimate   =    -926.04869219 Ry
     estimated scf accuracy    <       0.27345137 Ry

     iteration #  7     ecut=   100.00 Ry     beta= 0.70
     Davidson diagonalization with overlap
     ethr =  2.44E-04,  avg # of iterations =  1.0

     total cpu time spent up to now is       12.3 secs

     total energy              =    -925.98940756 Ry
     Harris-Foulkes estimate   =    -926.03065055 Ry
     estimated scf accuracy    <       0.21779104 Ry

     iteration #  8     ecut=   100.00 Ry     beta= 0.70
     Davidson diagonalization with overlap
     ethr =  1.94E-04,  avg # of iterations =  3.5

     total cpu time spent up to now is       13.5 secs

     total energy              =    -926.00542243 Ry
     Harris-Foulkes estimate   =    -926.01080557 Ry
     estimated scf accuracy    <       0.02355530 Ry

     iteration #  9     ecut=   100.00 Ry     beta= 0.70
     Davidson diagonalization with overlap
     ethr =  2.10E-05,  avg # of iterations =  5.0

     total cpu time spent up to now is       15.2 secs

     total energy              =    -926.01542066 Ry
     Harris-Foulkes estimate   =    -926.01665807 Ry
     estimated scf accuracy    <       0.00765534 Ry

     iteration # 10     ecut=   100.00 Ry     beta= 0.70
     Davidson diagonalization with overlap
     ethr =  6.84E-06,  avg # of iterations =  3.0

     total cpu time spent up to now is       16.2 secs

     total energy              =    -926.01517771 Ry
     Harris-Foulkes estimate   =    -926.01574831 Ry
     estimated scf accuracy    <       0.00386129 Ry

     iteration # 11     ecut=   100.00 Ry     beta= 0.70
     Davidson diagonalization with overlap
     ethr =  3.45E-06,  avg # of iterations =  4.0

     total cpu time spent up to now is       17.5 secs

     total energy              =    -926.01553000 Ry
     Harris-Foulkes estimate   =    -926.01558156 Ry
     estimated scf accuracy    <       0.00035824 Ry

     iteration # 12     ecut=   100.00 Ry     beta= 0.70
     Davidson diagonalization with overlap
     ethr =  3.20E-07,  avg # of iterations =  4.5

     total cpu time spent up to now is       18.9 secs

     total energy              =    -926.01567576 Ry
     Harris-Foulkes estimate   =    -926.01568185 Ry
     estimated scf accuracy    <       0.00002333 Ry

     iteration # 13     ecut=   100.00 Ry     beta= 0.70
     Davidson diagonalization with overlap
     ethr =  2.08E-08,  avg # of iterations =  5.0

     total cpu time spent up to now is       20.6 secs

     total energy              =    -926.01568195 Ry
     Harris-Foulkes estimate   =    -926.01568625 Ry
     estimated scf accuracy    <       0.00001978 Ry

     iteration # 14     ecut=   100.00 Ry     beta= 0.70
     Davidson diagonalization with overlap
     ethr =  1.77E-08,  avg # of iterations =  4.0

     total cpu time spent up to now is       21.7 secs

     total energy              =    -926.01568120 Ry
     Harris-Foulkes estimate   =    -926.01568342 Ry
     estimated scf accuracy    <       0.00001084 Ry

     iteration # 15     ecut=   100.00 Ry     beta= 0.70
     Davidson diagonalization with overlap
     ethr =  9.68E-09,  avg # of iterations =  4.0

     total cpu time spent up to now is       23.1 secs

     total energy              =    -926.01568298 Ry
     Harris-Foulkes estimate   =    -926.01568333 Ry
     estimated scf accuracy    <       0.00000128 Ry

     iteration # 16     ecut=   100.00 Ry     beta= 0.70
     Davidson diagonalization with overlap
     ethr =  1.14E-09,  avg # of iterations =  4.8

     total cpu time spent up to now is       24.5 secs

     total energy              =    -926.01568317 Ry
     Harris-Foulkes estimate   =    -926.01568320 Ry
     estimated scf accuracy    <       0.00000024 Ry

     iteration # 17     ecut=   100.00 Ry     beta= 0.70
     Davidson diagonalization with overlap
     ethr =  2.13E-10,  avg # of iterations =  4.0

     total cpu time spent up to now is       25.8 secs

     total energy              =    -926.01568322 Ry
     Harris-Foulkes estimate   =    -926.01568322 Ry
     estimated scf accuracy    <          4.9E-09 Ry

     iteration # 18     ecut=   100.00 Ry     beta= 0.70
     Davidson diagonalization with overlap
     ethr =  4.39E-12,  avg # of iterations =  5.2

     total cpu time spent up to now is       27.6 secs

     total energy              =    -926.01568322 Ry
     Harris-Foulkes estimate   =    -926.01568323 Ry
     estimated scf accuracy    <          1.4E-09 Ry

     iteration # 19     ecut=   100.00 Ry     beta= 0.70
     Davidson diagonalization with overlap
     ethr =  1.26E-12,  avg # of iterations =  5.0

     total cpu time spent up to now is       29.0 secs

     End of self-consistent calculation

          k = 0.0000 0.0000 0.0000 ( 22307 PWs)   bands (ev):

   -61.0224 -61.0206 -61.0134 -61.0116 -34.9994 -34.9971 -34.9898 -34.9852
   -34.9170 -34.8700 -34.8519 -34.8222 -34.8200 -34.8068 -34.7931 -34.7909
   -14.2360 -14.1224 -13.2495 -13.1064 -13.0372 -13.0302 -12.6811 -12.6757
   -12.5451 -12.5391  -1.0885  -1.0779  -1.0076  -0.9009  -0.8009  -0.3984
     0.2552   0.3453   0.5285   0.6099   0.7458   0.7887   0.9003   0.9443
     1.0056   1.0347   1.3003   1.3359   1.4350   1.4874   1.5937   1.6085
     1.8034   2.0386   2.1722   2.2004   2.3143   2.4936   2.4954   2.5858

          k = 0.0000 0.2548 0.0000 ( 22290 PWs)   bands (ev):

   -61.0224 -61.0206 -61.0134 -61.0116 -35.0000 -34.9978 -34.9913 -34.9867
   -34.9168 -34.8698 -34.8519 -34.8221 -34.8199 -34.8068 -34.7931 -34.7909
   -14.1890 -14.0833 -13.2058 -13.0891 -13.0360 -13.0150 -12.6969 -12.6723
   -12.5482 -12.5191  -1.1177  -1.1066  -1.0319  -0.9327  -0.9038  -0.5572
    -0.4183  -0.1836  -0.1425  -0.0080   0.4394   0.5655   0.6225   0.9870
     1.0917   1.3021   1.4572   1.4743   1.6126   1.6827   1.8086   1.9030
     2.1650   2.1731   2.1821   2.3512   2.4015   2.5966   2.6713   2.7526

          k = 0.3333 0.0000 0.0000 ( 22252 PWs)   bands (ev):

   -61.0187 -61.0170 -61.0142 -61.0125 -34.9939 -34.9918 -34.9881 -34.9847
   -34.9137 -34.8906 -34.8773 -34.8690 -34.8315 -34.8256 -34.8126 -34.8049
   -13.7104 -13.5828 -13.1592 -13.0014 -12.9969 -12.9886 -12.6238 -12.6236
   -12.5878 -12.5633  -1.5523  -1.4811  -0.8056  -0.7490  -0.7102  -0.3381
    -0.2456   0.1121   0.1314   0.4163   0.4295   0.4779   0.8006   0.9170
     0.9621   0.9958   1.0129   1.1000   1.2548   1.2641   1.4480   1.4907
     1.5485   1.9354   2.2323   2.3036   2.4265   2.5808   2.7700   2.7937

          k = 0.3333 0.2548 0.0000 ( 22300 PWs)   bands (ev):

   -61.0187 -61.0170 -61.0142 -61.0125 -34.9947 -34.9927 -34.9894 -34.9859
   -34.9135 -34.8905 -34.8771 -34.8689 -34.8315 -34.8256 -34.8126 -34.8049
   -13.6693 -13.5537 -13.1279 -12.9995 -12.9881 -12.9754 -12.6330 -12.6134
   -12.5587 -12.5363  -1.5507  -1.4784  -0.8432  -0.8039  -0.7814  -0.4430
    -0.3908  -0.2768  -0.1757  -0.0076   0.0600   0.2046   0.5528   0.5973
     0.6608   0.7428   0.8314   0.9294   1.0045   1.4486   1.6867   1.8552
     2.0719   2.1397   2.4513   2.6732   2.6827   2.8179   2.9024   2.9191

     highest occupied level (ev):     2.9191

!    total energy              =    -926.01568323 Ry
     Harris-Foulkes estimate   =    -926.01568323 Ry
     estimated scf accuracy    <          6.1E-11 Ry

     The total energy is the sum of the following terms:

     one-electron contribution =    -627.18433918 Ry
     hartree contribution      =     350.38492502 Ry
     xc contribution           =    -178.13955847 Ry
     ewald contribution        =    -471.07671060 Ry

     convergence has been achieved in  19 iterations

     Forces acting on atoms (cartesian axes, Ry/au):

     atom    1 type  1   force =     0.00000000    0.00006478   -0.00016660
     atom    2 type  1   force =     0.00000000   -0.00006478    0.00016660
     atom    3 type  1   force =     0.00000000   -0.00006478   -0.00016660
     atom    4 type  1   force =     0.00000000    0.00006478    0.00016660
     atom    5 type  2   force =    -0.00000000    0.00017790    0.00007400
     atom    6 type  2   force =     0.00000000   -0.00017790   -0.00007400
     atom    7 type  2   force =     0.00000000   -0.00017790    0.00007400
     atom    8 type  2   force =    -0.00000000    0.00017790   -0.00007400
     atom    9 type  2   force =     0.00000000    0.00000326    0.00011550
     atom   10 type  2   force =     0.00000000   -0.00000326   -0.00011550
     atom   11 type  2   force =     0.00000000   -0.00000326    0.00011550
     atom   12 type  2   force =     0.00000000   -0.00021074    0.00000000
     atom   13 type  2   force =     0.00000000    0.00021074   -0.00000000
     atom   14 type  2   force =     0.00000000    0.00000326   -0.00011550

     Total force =     0.000647     Total SCF correction =     0.000037


     Computing stress (Cartesian axis) and pressure

          total   stress  (Ry/bohr**3)                   (kbar)     P=    2.03
   0.00001361   0.00000000   0.00000000          2.00      0.00      0.00
   0.00000000   0.00001378   0.00000000          0.00      2.03      0.00
   0.00000000   0.00000000   0.00001407          0.00      0.00      2.07


     BFGS Geometry Optimization

     number of scf cycles    =   1
     number of bfgs steps    =   0

     enthalpy new            =    -926.0156832250 Ry

     new trust radius        =       0.0025557525 bohr
     new conv_thr            =            1.0E-10 Ry

     new unit-cell volume =   1321.49218 a.u.^3 (   195.82494 Ang^3 )
     density =      3.08458 g/cm^3

CELL_PARAMETERS (alat=  6.76758343)
   1.000340252   0.000000000   0.000000000
   0.000000000   1.308825159   0.000000000
   0.000000000   0.000000000   3.256374638

ATOMIC_POSITIONS (crystal)
V        0.000000000   0.388520867   0.647722679
V        0.500000007   0.611479146   0.852277342
V        0.500000007   0.611479146   0.147722672
V        0.000000000   0.388520867   0.352277335
O        0.500000007   0.493632330   0.681224520
O        0.000000000   0.506367684   0.818775502
O        0.000000000   0.506367684   0.181224512
O        0.500000007   0.493632330   0.318775495
O        0.000000000   0.048914913   0.356802205
O        0.500000007   0.951085101   0.143197802
O        0.500000007   0.951085101   0.856802212
O        0.500000007   0.500569139   0.000000000
O        0.000000000   0.499430874   0.500000007
O        0.000000000   0.048914913   0.643197809



     Writing output data file v2o5.save/
     NEW-OLD atomic charge density approx. for the potential
     extrapolated charge  112.11599, renormalised to  112.00000

     total cpu time spent up to now is       32.4 secs

     Self-consistent Calculation

     iteration #  1     ecut=   100.00 Ry     beta= 0.70
     Davidson diagonalization with overlap
     ethr =  1.00E-06,  avg # of iterations =  5.0

     total cpu time spent up to now is       34.6 secs

     total energy              =    -926.01098412 Ry
     Harris-Foulkes estimate   =    -925.48328548 Ry
     estimated scf accuracy    <       0.00464102 Ry

     iteration #  2     ecut=   100.00 Ry     beta= 0.70
     Davidson diagonalization with overlap
     ethr =  4.14E-06,  avg # of iterations =  6.0

     total cpu time spent up to now is       36.8 secs

     total energy              =    -926.00476955 Ry
     Harris-Foulkes estimate   =    -926.03251780 Ry
     estimated scf accuracy    <       0.15461507 Ry

     iteration #  3     ecut=   100.00 Ry     beta= 0.70
     Davidson diagonalization with overlap
     ethr =  4.14E-06,  avg # of iterations =  5.0

     total cpu time spent up to now is       39.1 secs

     total energy              =    -926.01579196 Ry
     Harris-Foulkes estimate   =    -926.01612759 Ry
     estimated scf accuracy    <       0.00258951 Ry

     iteration #  4     ecut=   100.00 Ry     beta= 0.70
     Davidson diagonalization with overlap
     ethr =  2.31E-06,  avg # of iterations =  1.0

     total cpu time spent up to now is       39.9 secs

     total energy              =    -926.01560387 Ry
     Harris-Foulkes estimate   =    -926.01583634 Ry
     estimated scf accuracy    <       0.00185536 Ry

     iteration #  5     ecut=   100.00 Ry     beta= 0.70
     Davidson diagonalization with overlap
     ethr =  1.66E-06,  avg # of iterations =  2.0

     total cpu time spent up to now is       40.6 secs

     total energy              =    -926.01565132 Ry
     Harris-Foulkes estimate   =    -926.01565870 Ry
     estimated scf accuracy    <       0.00095532 Ry

     iteration #  6     ecut=   100.00 Ry     beta= 0.70
     Davidson diagonalization with overlap
     ethr =  8.53E-07,  avg # of iterations =  1.0

     total cpu time spent up to now is       41.2 secs

     total energy              =    -926.01567406 Ry
     Harris-Foulkes estimate   =    -926.01567367 Ry
     estimated scf accuracy    <       0.00085960 Ry

     iteration #  7     ecut=   100.00 Ry     beta= 0.70
     Davidson diagonalization with overlap
     ethr =  7.67E-07,  avg # of iterations =  1.0

     total cpu time spent up to now is       41.8 secs

     total energy              =    -926.01568150 Ry
     Harris-Foulkes estimate   =    -926.01568478 Ry
     estimated scf accuracy    <       0.00073025 Ry

     iteration #  8     ecut=   100.00 Ry     beta= 0.70
     Davidson diagonalization with overlap
     ethr =  6.52E-07,  avg # of iterations =  1.0

     total cpu time spent up to now is       42.3 secs

     total energy              =    -926.01568275 Ry
     Harris-Foulkes estimate   =    -926.01569040 Ry
     estimated scf accuracy    <       0.00063782 Ry

     iteration #  9     ecut=   100.00 Ry     beta= 0.70
     Davidson diagonalization with overlap
     ethr =  5.69E-07,  avg # of iterations =  1.0

     total cpu time spent up to now is       42.9 secs

     total energy              =    -926.01567675 Ry
     Harris-Foulkes estimate   =    -926.01568973 Ry
     estimated scf accuracy    <       0.00054688 Ry

     iteration # 10     ecut=   100.00 Ry     beta= 0.70
     Davidson diagonalization with overlap
     ethr =  4.88E-07,  avg # of iterations =  1.0

     total cpu time spent up to now is       43.5 secs

     total energy              =    -926.01559151 Ry
     Harris-Foulkes estimate   =    -926.01568334 Ry
     estimated scf accuracy    <       0.00045430 Ry

     iteration # 11     ecut=   100.00 Ry     beta= 0.70
     Davidson diagonalization with overlap
     ethr =  4.06E-07,  avg # of iterations =  4.5

     total cpu time spent up to now is       44.4 secs

     total energy              =    -926.01570530 Ry
     Harris-Foulkes estimate   =    -926.01570600 Ry
     estimated scf accuracy    <       0.00011295 Ry

     iteration # 12     ecut=   100.00 Ry     beta= 0.70
     Davidson diagonalization with overlap
     ethr =  1.01E-07,  avg # of iterations =  2.5

     total cpu time spent up to now is       45.1 secs

     total energy              =    -926.01571124 Ry
     Harris-Foulkes estimate   =    -926.01570778 Ry
     estimated scf accuracy    <       0.00011351 Ry

     iteration # 13     ecut=   100.00 Ry     beta= 0.70
     Davidson diagonalization with overlap
     ethr =  1.01E-07,  avg # of iterations =  1.5

     total cpu time spent up to now is       45.7 secs

     total energy              =    -926.01570466 Ry
     Harris-Foulkes estimate   =    -926.01571293 Ry
     estimated scf accuracy    <       0.00012903 Ry

     iteration # 14     ecut=   100.00 Ry     beta= 0.70
     Davidson diagonalization with overlap
     ethr =  1.01E-07,  avg # of iterations =  5.0

     total cpu time spent up to now is       46.8 secs

     total energy              =    -926.01570311 Ry
     Harris-Foulkes estimate   =    -926.01574559 Ry
     estimated scf accuracy    <       0.00037437 Ry

     iteration # 15     ecut=   100.00 Ry     beta= 0.70
     Davidson diagonalization with overlap
     ethr =  1.01E-07,  avg # of iterations =  4.0

     total cpu time spent up to now is       47.5 secs

     total energy              =    -926.01567586 Ry
     Harris-Foulkes estimate   =    -926.01571042 Ry
     estimated scf accuracy    <       0.00020483 Ry

     iteration # 16     ecut=   100.00 Ry     beta= 0.70
     Davidson diagonalization with overlap
     ethr =  1.01E-07,  avg # of iterations =  4.0

     total cpu time spent up to now is       48.4 secs

     total energy              =    -926.01569792 Ry
     Harris-Foulkes estimate   =    -926.01570077 Ry
     estimated scf accuracy    <       0.00005615 Ry

     iteration # 17     ecut=   100.00 Ry     beta= 0.70
     Davidson diagonalization with overlap
     ethr =  5.01E-08,  avg # of iterations =  1.0

     total cpu time spent up to now is       49.0 secs

     total energy              =    -926.01569481 Ry
     Harris-Foulkes estimate   =    -926.01569858 Ry
     estimated scf accuracy    <       0.00004838 Ry

     iteration # 18     ecut=   100.00 Ry     beta= 0.70
     Davidson diagonalization with overlap
     ethr =  4.32E-08,  avg # of iterations =  1.0

     total cpu time spent up to now is       49.6 secs

     total energy              =    -926.01569174 Ry
     Harris-Foulkes estimate   =    -926.01569538 Ry
     estimated scf accuracy    <       0.00003320 Ry

     iteration # 19     ecut=   100.00 Ry     beta= 0.70
     Davidson diagonalization with overlap
     ethr =  2.96E-08,  avg # of iterations =  3.8

     total cpu time spent up to now is       50.3 secs

     total energy              =    -926.01569124 Ry
     Harris-Foulkes estimate   =    -926.01569374 Ry
     estimated scf accuracy    <       0.00000999 Ry

     iteration # 20     ecut=   100.00 Ry     beta= 0.70
     Davidson diagonalization with overlap
     ethr =  8.92E-09,  avg # of iterations =  5.0

     total cpu time spent up to now is       51.4 secs

     total energy              =    -926.01569394 Ry
     Harris-Foulkes estimate   =    -926.01569638 Ry
     estimated scf accuracy    <       0.00001361 Ry

     iteration # 21     ecut=   100.00 Ry     beta= 0.70
     Davidson diagonalization with overlap
     ethr =  8.92E-09,  avg # of iterations =  3.2

     total cpu time spent up to now is       52.0 secs

     total energy              =    -926.01569390 Ry
     Harris-Foulkes estimate   =    -926.01569451 Ry
     estimated scf accuracy    <       0.00000358 Ry

     iteration # 22     ecut=   100.00 Ry     beta= 0.70
     Davidson diagonalization with overlap
     ethr =  3.20E-09,  avg # of iterations =  4.2

     total cpu time spent up to now is       53.0 secs

     total energy              =    -926.01569475 Ry
     Harris-Foulkes estimate   =    -926.01569479 Ry
     estimated scf accuracy    <       0.00000028 Ry

     iteration # 23     ecut=   100.00 Ry     beta= 0.70
     Davidson diagonalization with overlap
     ethr =  2.52E-10,  avg # of iterations =  4.8

     total cpu time spent up to now is       53.9 secs

     total energy              =    -926.01569469 Ry
     Harris-Foulkes estimate   =    -926.01569479 Ry
     estimated scf accuracy    <       0.00000033 Ry

     iteration # 24     ecut=   100.00 Ry     beta= 0.70
     Davidson diagonalization with overlap
     ethr =  2.52E-10,  avg # of iterations =  4.5

     total cpu time spent up to now is       54.9 secs

     total energy              =    -926.01569476 Ry
     Harris-Foulkes estimate   =    -926.01569479 Ry
     estimated scf accuracy    <       0.00000018 Ry

     iteration # 25     ecut=   100.00 Ry     beta= 0.70
     Davidson diagonalization with overlap
     ethr =  1.63E-10,  avg # of iterations =  1.0

     total cpu time spent up to now is       55.5 secs

     total energy              =    -926.01569475 Ry
     Harris-Foulkes estimate   =    -926.01569476 Ry
     estimated scf accuracy    <       0.00000008 Ry

     iteration # 26     ecut=   100.00 Ry     beta= 0.70
     Davidson diagonalization with overlap
     ethr =  7.33E-11,  avg # of iterations =  4.0

     total cpu time spent up to now is       56.4 secs

     total energy              =    -926.01569477 Ry
     Harris-Foulkes estimate   =    -926.01569477 Ry
     estimated scf accuracy    <       0.00000002 Ry

     iteration # 27     ecut=   100.00 Ry     beta= 0.70
     Davidson diagonalization with overlap
     ethr =  1.43E-11,  avg # of iterations =  1.0

     total cpu time spent up to now is       57.0 secs

     total energy              =    -926.01569477 Ry
     Harris-Foulkes estimate   =    -926.01569477 Ry
     estimated scf accuracy    <          8.8E-09 Ry

     iteration # 28     ecut=   100.00 Ry     beta= 0.70
     Davidson diagonalization with overlap
     ethr =  7.88E-12,  avg # of iterations =  4.5

     total cpu time spent up to now is       57.8 secs

     End of self-consistent calculation

          k = 0.0000 0.0000 0.0000 ( 22307 PWs)   bands (ev):

   -61.0359 -61.0341 -61.0269 -61.0252 -35.0112 -35.0090 -35.0017 -34.9971
   -34.9299 -34.8831 -34.8651 -34.8354 -34.8332 -34.8201 -34.8065 -34.8043
   -14.2428 -14.1293 -13.2588 -13.1144 -13.0456 -13.0401 -12.6914 -12.6860
   -12.5557 -12.5497  -1.0955  -1.0849  -1.0146  -0.9071  -0.8094  -0.4063
     0.2479   0.3380   0.5210   0.6021   0.7374   0.7802   0.8903   0.9344
     0.9953   1.0243   1.2916   1.3271   1.4258   1.4786   1.5844   1.5989
     1.7943   2.0287   2.1616   2.1898   2.3048   2.4835   2.4856   2.5755

          k = 0.0000 0.2547 0.0000 ( 22290 PWs)   bands (ev):

   -61.0359 -61.0341 -61.0269 -61.0252 -35.0119 -35.0097 -35.0032 -34.9986
   -34.9297 -34.8829 -34.8651 -34.8353 -34.8332 -34.8201 -34.8065 -34.8043
   -14.1958 -14.0903 -13.2150 -13.0971 -13.0444 -13.0249 -12.7072 -12.6827
   -12.5589 -12.5299  -1.1246  -1.1135  -1.0388  -0.9388  -0.9112  -0.5635
    -0.4264  -0.1916  -0.1499  -0.0148   0.4303   0.5575   0.6145   0.9777
     1.0831   1.2933   1.4480   1.4638   1.6022   1.6734   1.7989   1.8931
     2.1544   2.1624   2.1722   2.3416   2.3919   2.5861   2.6610   2.7419

          k = 0.3332 0.0000 0.0000 ( 22252 PWs)   bands (ev):

   -61.0322 -61.0305 -61.0278 -61.0260 -35.0058 -35.0037 -35.0000 -34.9966
   -34.9266 -34.9036 -34.8903 -34.8820 -34.8448 -34.8388 -34.8259 -34.8182
   -13.7183 -13.5908 -13.1687 -13.0101 -13.0059 -12.9986 -12.6343 -12.6341
   -12.5984 -12.5740  -1.5584  -1.4875  -0.8136  -0.7555  -0.7187  -0.3458
    -0.2526   0.1048   0.1247   0.4094   0.4219   0.4704   0.7921   0.9085
     0.9537   0.9861   1.0032   1.0893   1.2439   1.2559   1.4389   1.4811
     1.5393   1.9259   2.2224   2.2936   2.4171   2.5707   2.7600   2.7831

          k = 0.3332 0.2547 0.0000 ( 22300 PWs)   bands (ev):

   -61.0322 -61.0305 -61.0278 -61.0260 -35.0066 -35.0046 -35.0013 -34.9978
   -34.9264 -34.9035 -34.8901 -34.8819 -34.8448 -34.8388 -34.8259 -34.8183
   -13.6772 -13.5617 -13.1374 -13.0082 -12.9972 -12.9855 -12.6436 -12.6240
   -12.5694 -12.5471  -1.5569  -1.4849  -0.8509  -0.8103  -0.7892  -0.4491
    -0.3984  -0.2834  -0.1828  -0.0150   0.0521   0.1967   0.5433   0.5893
     0.6525   0.7343   0.8224   0.9206   0.9955   1.4398   1.6772   1.8455
     2.0615   2.1294   2.4414   2.6633   2.6720   2.8074   2.8916   2.9089

     highest occupied level (ev):     2.9089

!    total energy              =    -926.01569477 Ry
     Harris-Foulkes estimate   =    -926.01569477 Ry
     estimated scf accuracy    <          2.9E-11 Ry

     The total energy is the sum of the following terms:

     one-electron contribution =    -627.41329042 Ry
     hartree contribution      =     350.45202633 Ry
     xc contribution           =    -178.13052902 Ry
     ewald contribution        =    -470.92390166 Ry

     convergence has been achieved in  28 iterations

     Forces acting on atoms (cartesian axes, Ry/au):

     atom    1 type  1   force =     0.00000000   -0.00062135   -0.00025373
     atom    2 type  1   force =     0.00000000    0.00062135    0.00025373
     atom    3 type  1   force =     0.00000000    0.00062135   -0.00025373
     atom    4 type  1   force =    -0.00000000   -0.00062135    0.00025373
     atom    5 type  2   force =    -0.00000000    0.00001598    0.00015379
     atom    6 type  2   force =     0.00000000   -0.00001598   -0.00015379
     atom    7 type  2   force =     0.00000000   -0.00001598    0.00015379
     atom    8 type  2   force =     0.00000000    0.00001598   -0.00015379
     atom    9 type  2   force =     0.00000000    0.00116221    0.00008099
     atom   10 type  2   force =     0.00000000   -0.00116221   -0.00008099
     atom   11 type  2   force =     0.00000000   -0.00116221    0.00008099
     atom   12 type  2   force =     0.00000000    0.00011598   -0.00000000
     atom   13 type  2   force =    -0.00000000   -0.00011598    0.00000000
     atom   14 type  2   force =     0.00000000    0.00116221   -0.00008099

     Total force =     0.002712     Total SCF correction =     0.000012


     Computing stress (Cartesian axis) and pressure

          total   stress  (Ry/bohr**3)                   (kbar)     P=    0.39
   0.00000315   0.00000000   0.00000000          0.46      0.00      0.00
   0.00000000   0.00000098   0.00000000          0.00      0.14      0.00
   0.00000000   0.00000000   0.00000390          0.00      0.00      0.57


     number of scf cycles    =   2
     number of bfgs steps    =   1

     enthalpy old            =    -926.0156832250 Ry
     enthalpy new            =    -926.0156947714 Ry

     CASE: enthalpy_new < enthalpy_old

     new trust radius        =       0.0024056377 bohr
     new conv_thr            =            1.0E-12 Ry

     new unit-cell volume =   1322.63889 a.u.^3 (   195.99486 Ang^3 )
     density =      3.08191 g/cm^3

CELL_PARAMETERS (alat=  6.76758343)
   1.000641179   0.000000000   0.000000000
   0.000000000   1.309133763   0.000000000
   0.000000000   0.000000000   3.257452101

ATOMIC_POSITIONS (crystal)
V        0.000000000   0.388438165   0.647703876
V        0.500000007   0.611561848   0.852296145
V        0.500000007   0.611561848   0.147703869
V        0.000000000   0.388438165   0.352296138
O        0.500000007   0.493646558   0.681235186
O        0.000000000   0.506353456   0.818764836
O        0.000000000   0.506353456   0.181235178
O        0.500000007   0.493646558   0.318764829
O        0.000000000   0.049077990   0.356809894
O        0.500000007   0.950922024   0.143190113
O        0.500000007   0.950922024   0.856809901
O        0.500000007   0.500571188  -0.000000000
O       -0.000000000   0.499428825   0.500000007
O        0.000000000   0.049077990   0.643190120



     Writing output data file v2o5.save/
     NEW-OLD atomic charge density approx. for the potential
     extrapolated charge  112.09710, renormalised to  112.00000

     total cpu time spent up to now is       60.2 secs

     Self-consistent Calculation

     iteration #  1     ecut=   100.00 Ry     beta= 0.70
     Davidson diagonalization with overlap
     ethr =  1.00E-06,  avg # of iterations =  4.8

     total cpu time spent up to now is       61.6 secs

     total energy              =    -926.01261644 Ry
     Harris-Foulkes estimate   =    -925.56966702 Ry
     estimated scf accuracy    <       0.00299203 Ry

     iteration #  2     ecut=   100.00 Ry     beta= 0.70
     Davidson diagonalization with overlap
     ethr =  2.67E-06,  avg # of iterations =  5.8

     total cpu time spent up to now is       63.0 secs

     total energy              =    -926.00879603 Ry
     Harris-Foulkes estimate   =    -926.02662315 Ry
     estimated scf accuracy    <       0.09900417 Ry

     iteration #  3     ecut=   100.00 Ry     beta= 0.70
     Davidson diagonalization with overlap
     ethr =  2.67E-06,  avg # of iterations =  5.0

     total cpu time spent up to now is       64.4 secs

     total energy              =    -926.01577508 Ry
     Harris-Foulkes estimate   =    -926.01600322 Ry
     estimated scf accuracy    <       0.00184579 Ry

     iteration #  4     ecut=   100.00 Ry     beta= 0.70
     Davidson diagonalization with overlap
     ethr =  1.65E-06,  avg # of iterations =  1.0

     total cpu time spent up to now is       65.0 secs

     total energy              =    -926.01563327 Ry
     Harris-Foulkes estimate   =    -926.01580370 Ry
     estimated scf accuracy    <       0.00134495 Ry

     iteration #  5     ecut=   100.00 Ry     beta= 0.70
     Davidson diagonalization with overlap
     ethr =  1.20E-06,  avg # of iterations =  2.0

     total cpu time spent up to now is       65.6 secs

     total energy              =    -926.01566857 Ry
     Harris-Foulkes estimate   =    -926.01567213 Ry
     estimated scf accuracy    <       0.00068478 Ry

     iteration #  6     ecut=   100.00 Ry     beta= 0.70
     Davidson diagonalization with overlap
     ethr =  6.11E-07,  avg # of iterations =  1.0

     total cpu time spent up to now is       66.2 secs

     total energy              =    -926.01568457 Ry
     Harris-Foulkes estimate   =    -926.01568446 Ry
     estimated scf accuracy    <       0.00062354 Ry

     iteration #  7     ecut=   100.00 Ry     beta= 0.70
     Davidson diagonalization with overlap
     ethr =  5.57E-07,  avg # of iterations =  1.0

     total cpu time spent up to now is       66.8 secs

     total energy              =    -926.01570421 Ry
     Harris-Foulkes estimate   =    -926.01569219 Ry
     estimated scf accuracy    <       0.00053902 Ry

     iteration #  8     ecut=   100.00 Ry     beta= 0.70
     Davidson diagonalization with overlap
     ethr =  4.81E-07,  avg # of iterations =  1.0

     total cpu time spent up to now is       67.4 secs

     total energy              =    -926.01568670 Ry
     Harris-Foulkes estimate   =    -926.01570910 Ry
     estimated scf accuracy    <       0.00052083 Ry

     iteration #  9     ecut=   100.00 Ry     beta= 0.70
     Davidson diagonalization with overlap
     ethr =  4.65E-07,  avg # of iterations =  1.0

     total cpu time spent up to now is       68.0 secs

     total energy              =    -926.01570006 Ry
     Harris-Foulkes estimate   =    -926.01569411 Ry
     estimated scf accuracy    <       0.00037812 Ry

     iteration # 10     ecut=   100.00 Ry     beta= 0.70
     Davidson diagonalization with overlap
     ethr =  3.38E-07,  avg # of iterations =  1.0

     total cpu time spent up to now is       68.5 secs

     total energy              =    -926.01548403 Ry
     Harris-Foulkes estimate   =    -926.01570502 Ry
     estimated scf accuracy    <       0.00036769 Ry

     iteration # 11     ecut=   100.00 Ry     beta= 0.70
     Davidson diagonalization with overlap
     ethr =  3.28E-07,  avg # of iterations =  5.0

     total cpu time spent up to now is       69.9 secs

     total energy              =    -926.01512484 Ry
     Harris-Foulkes estimate   =    -926.01609146 Ry
     estimated scf accuracy    <       0.00335888 Ry

     iteration # 12     ecut=   100.00 Ry     beta= 0.70
     Davidson diagonalization with overlap
     ethr =  3.28E-07,  avg # of iterations =  5.0

     total cpu time spent up to now is       71.4 secs

     total energy              =    -926.01545861 Ry
     Harris-Foulkes estimate   =    -926.01576589 Ry
     estimated scf accuracy    <       0.00051026 Ry

     iteration # 13     ecut=   100.00 Ry     beta= 0.70
     Davidson diagonalization with overlap
     ethr =  3.28E-07,  avg # of iterations =  5.0

     total cpu time spent up to now is       72.8 secs

     total energy              =    -926.01564851 Ry
     Harris-Foulkes estimate   =    -926.01611036 Ry
     estimated scf accuracy    <       0.00343450 Ry

     iteration # 14     ecut=   100.00 Ry     beta= 0.70
     Davidson diagonalization with overlap
     ethr =  3.28E-07,  avg # of iterations =  4.0

     total cpu time spent up to now is       73.9 secs

     total energy              =    -926.01571441 Ry
     Harris-Foulkes estimate   =    -926.01576932 Ry
     estimated scf accuracy    <       0.00063420 Ry

     iteration # 15     ecut=   100.00 Ry     beta= 0.70
     Davidson diagonalization with overlap
     ethr =  3.28E-07,  avg # of iterations =  1.0

     total cpu time spent up to now is       74.5 secs

     total energy              =    -926.01567248 Ry
     Harris-Foulkes estimate   =    -926.01571819 Ry
     estimated scf accuracy    <       0.00048036 Ry

     iteration # 16     ecut=   100.00 Ry     beta= 0.70
     Davidson diagonalization with overlap
     ethr =  3.28E-07,  avg # of iterations =  1.0

     total cpu time spent up to now is       75.0 secs

     total energy              =    -926.01570279 Ry
     Harris-Foulkes estimate   =    -926.01568188 Ry
     estimated scf accuracy    <       0.00028090 Ry

     iteration # 17     ecut=   100.00 Ry     beta= 0.70
     Davidson diagonalization with overlap
     ethr =  2.51E-07,  avg # of iterations =  1.0

     total cpu time spent up to now is       75.6 secs

     total energy              =    -926.01571681 Ry
     Harris-Foulkes estimate   =    -926.01570761 Ry
     estimated scf accuracy    <       0.00030366 Ry

     iteration # 18     ecut=   100.00 Ry     beta= 0.70
     Davidson diagonalization with overlap
     ethr =  2.51E-07,  avg # of iterations =  1.0

     total cpu time spent up to now is       76.2 secs

     total energy              =    -926.01565255 Ry
     Harris-Foulkes estimate   =    -926.01571769 Ry
     estimated scf accuracy    <       0.00030664 Ry

     iteration # 19     ecut=   100.00 Ry     beta= 0.70
     Davidson diagonalization with overlap
     ethr =  2.51E-07,  avg # of iterations =  4.0

     total cpu time spent up to now is       77.1 secs

     total energy              =    -926.01569553 Ry
     Harris-Foulkes estimate   =    -926.01569560 Ry
     estimated scf accuracy    <       0.00000526 Ry

     iteration # 20     ecut=   100.00 Ry     beta= 0.70
     Davidson diagonalization with overlap
     ethr =  4.70E-09,  avg # of iterations =  5.5

     total cpu time spent up to now is       78.2 secs

     total energy              =    -926.01569646 Ry
     Harris-Foulkes estimate   =    -926.01570076 Ry
     estimated scf accuracy    <       0.00001640 Ry

     iteration # 21     ecut=   100.00 Ry     beta= 0.70
     Davidson diagonalization with overlap
     ethr =  4.70E-09,  avg # of iterations =  4.0

     total cpu time spent up to now is       79.2 secs

     total energy              =    -926.01569859 Ry
     Harris-Foulkes estimate   =    -926.01569841 Ry
     estimated scf accuracy    <       0.00000027 Ry

     iteration # 22     ecut=   100.00 Ry     beta= 0.70
     Davidson diagonalization with overlap
     ethr =  2.40E-10,  avg # of iterations =  4.5

     total cpu time spent up to now is       80.5 secs

     total energy              =    -926.01569846 Ry
     Harris-Foulkes estimate   =    -926.01569898 Ry
     estimated scf accuracy    <       0.00000513 Ry

     iteration # 23     ecut=   100.00 Ry     beta= 0.70
     Davidson diagonalization with overlap
     ethr =  2.40E-10,  avg # of iterations =  4.2

     total cpu time spent up to now is       81.6 secs

     total energy              =    -926.01569839 Ry
     Harris-Foulkes estimate   =    -926.01569856 Ry
     estimated scf accuracy    <       0.00000157 Ry

     iteration # 24     ecut=   100.00 Ry     beta= 0.70
     Davidson diagonalization with overlap
     ethr =  2.40E-10,  avg # of iterations =  3.5

     total cpu time spent up to now is       82.4 secs

     total energy              =    -926.01569824 Ry
     Harris-Foulkes estimate   =    -926.01569842 Ry
     estimated scf accuracy    <       0.00000055 Ry

     iteration # 25     ecut=   100.00 Ry     beta= 0.70
     Davidson diagonalization with overlap
     ethr =  2.40E-10,  avg # of iterations =  4.5

     total cpu time spent up to now is       83.6 secs

     total energy              =    -926.01569838 Ry
     Harris-Foulkes estimate   =    -926.01569842 Ry
     estimated scf accuracy    <       0.00000027 Ry

     iteration # 26     ecut=   100.00 Ry     beta= 0.70
     Davidson diagonalization with overlap
     ethr =  2.40E-10,  avg # of iterations =  1.0

     total cpu time spent up to now is       84.2 secs

     total energy              =    -926.01569835 Ry
     Harris-Foulkes estimate   =    -926.01569839 Ry
     estimated scf accuracy    <       0.00000017 Ry

     iteration # 27     ecut=   100.00 Ry     beta= 0.70
     Davidson diagonalization with overlap
     ethr =  1.50E-10,  avg # of iterations =  4.0

     total cpu time spent up to now is       85.2 secs

     total energy              =    -926.01569838 Ry
     Harris-Foulkes estimate   =    -926.01569839 Ry
     estimated scf accuracy    <       0.00000004 Ry

     iteration # 28     ecut=   100.00 Ry     beta= 0.70
     Davidson diagonalization with overlap
     ethr =  3.38E-11,  avg # of iterations =  1.2

     total cpu time spent up to now is       85.8 secs

     total energy              =    -926.01569838 Ry
     Harris-Foulkes estimate   =    -926.01569838 Ry
     estimated scf accuracy    <       0.00000002 Ry

     iteration # 29     ecut=   100.00 Ry     beta= 0.70
     Davidson diagonalization with overlap
     ethr =  1.84E-11,  avg # of iterations =  3.2

     total cpu time spent up to now is       86.4 secs

     total energy              =    -926.01569838 Ry
     Harris-Foulkes estimate   =    -926.01569838 Ry
     estimated scf accuracy    <          9.8E-09 Ry

     iteration # 30     ecut=   100.00 Ry     beta= 0.70
     Davidson diagonalization with overlap
     ethr =  8.72E-12,  avg # of iterations =  4.0

     total cpu time spent up to now is       87.5 secs

     total energy              =    -926.01569838 Ry
     Harris-Foulkes estimate   =    -926.01569839 Ry
     estimated scf accuracy    <       0.00000001 Ry

     iteration # 31     ecut=   100.00 Ry     beta= 0.70
     Davidson diagonalization with overlap
     ethr =  8.72E-12,  avg # of iterations =  1.0

     total cpu time spent up to now is       88.1 secs

     total energy              =    -926.01569838 Ry
     Harris-Foulkes estimate   =    -926.01569838 Ry
     estimated scf accuracy    <          7.2E-09 Ry

     iteration # 32     ecut=   100.00 Ry     beta= 0.70
     Davidson diagonalization with overlap
     ethr =  6.44E-12,  avg # of iterations =  1.0

     total cpu time spent up to now is       88.7 secs

     total energy              =    -926.01569838 Ry
     Harris-Foulkes estimate   =    -926.01569838 Ry
     estimated scf accuracy    <          5.7E-09 Ry

     iteration # 33     ecut=   100.00 Ry     beta= 0.70
     Davidson diagonalization with overlap
     ethr =  5.05E-12,  avg # of iterations =  1.0

     total cpu time spent up to now is       89.3 secs

     total energy              =    -926.01569838 Ry
     Harris-Foulkes estimate   =    -926.01569838 Ry
     estimated scf accuracy    <          5.7E-09 Ry

     iteration # 34     ecut=   100.00 Ry     beta= 0.70
     Davidson diagonalization with overlap
     ethr =  5.05E-12,  avg # of iterations =  1.0

     total cpu time spent up to now is       89.8 secs

     total energy              =    -926.01569838 Ry
     Harris-Foulkes estimate   =    -926.01569838 Ry
     estimated scf accuracy    <          5.2E-09 Ry

     iteration # 35     ecut=   100.00 Ry     beta= 0.70
     Davidson diagonalization with overlap
     ethr =  4.62E-12,  avg # of iterations =  1.0

     total cpu time spent up to now is       90.4 secs

     total energy              =    -926.01569838 Ry
     Harris-Foulkes estimate   =    -926.01569838 Ry
     estimated scf accuracy    <          5.4E-09 Ry

     iteration # 36     ecut=   100.00 Ry     beta= 0.70
     Davidson diagonalization with overlap
     ethr =  4.62E-12,  avg # of iterations =  1.0

     total cpu time spent up to now is       91.0 secs

     total energy              =    -926.01569838 Ry
     Harris-Foulkes estimate   =    -926.01569838 Ry
     estimated scf accuracy    <          5.5E-09 Ry

     iteration # 37     ecut=   100.00 Ry     beta= 0.70
     Davidson diagonalization with overlap
     ethr =  4.62E-12,  avg # of iterations =  1.0

     total cpu time spent up to now is       91.5 secs

     total energy              =    -926.01569838 Ry
     Harris-Foulkes estimate   =    -926.01569838 Ry
     estimated scf accuracy    <          5.5E-09 Ry

     iteration # 38     ecut=   100.00 Ry     beta= 0.70
     Davidson diagonalization with overlap
     ethr =  4.62E-12,  avg # of iterations =  1.0

     total cpu time spent up to now is       92.1 secs

     total energy              =    -926.01569838 Ry
     Harris-Foulkes estimate   =    -926.01569838 Ry
     estimated scf accuracy    <          4.9E-09 Ry

     iteration # 39     ecut=   100.00 Ry     beta= 0.70
     Davidson diagonalization with overlap
     ethr =  4.41E-12,  avg # of iterations =  1.0

     total cpu time spent up to now is       92.7 secs

     total energy              =    -926.01569838 Ry
     Harris-Foulkes estimate   =    -926.01569838 Ry
     estimated scf accuracy    <          5.0E-09 Ry

     iteration # 40     ecut=   100.00 Ry     beta= 0.70
     Davidson diagonalization with overlap
     ethr =  4.41E-12,  avg # of iterations =  1.0

     total cpu time spent up to now is       93.3 secs

     total energy              =    -926.01569838 Ry
     Harris-Foulkes estimate   =    -926.01569838 Ry
     estimated scf accuracy    <          4.4E-09 Ry

     iteration # 41     ecut=   100.00 Ry     beta= 0.70
     Davidson diagonalization with overlap
     ethr =  3.96E-12,  avg # of iterations =  1.0

     total cpu time spent up to now is       93.8 secs

     total energy              =    -926.01569838 Ry
     Harris-Foulkes estimate   =    -926.01569838 Ry
     estimated scf accuracy    <          3.3E-09 Ry

     iteration # 42     ecut=   100.00 Ry     beta= 0.70
     Davidson diagonalization with overlap
     ethr =  2.99E-12,  avg # of iterations =  1.0

     total cpu time spent up to now is       94.4 secs

     total energy              =    -926.01569838 Ry
     Harris-Foulkes estimate   =    -926.01569838 Ry
     estimated scf accuracy    <          2.0E-09 Ry

     iteration # 43     ecut=   100.00 Ry     beta= 0.70
     Davidson diagonalization with overlap
     ethr =  1.82E-12,  avg # of iterations =  5.0

     total cpu time spent up to now is       95.6 secs

     total energy              =    -926.01569838 Ry
     Harris-Foulkes estimate   =    -926.01569839 Ry
     estimated scf accuracy    <          7.6E-09 Ry

     iteration # 44     ecut=   100.00 Ry     beta= 0.70
     Davidson diagonalization with overlap
     ethr =  1.82E-12,  avg # of iterations =  1.0

     total cpu time spent up to now is       96.2 secs

     total energy              =    -926.01569838 Ry
     Harris-Foulkes estimate   =    -926.01569838 Ry
     estimated scf accuracy    <          5.9E-09 Ry

     iteration # 45     ecut=   100.00 Ry     beta= 0.70
     Davidson diagonalization with overlap
     ethr =  1.82E-12,  avg # of iterations =  4.0

     total cpu time spent up to now is       97.3 secs

     total energy              =    -926.01569838 Ry
     Harris-Foulkes estimate   =    -926.01569838 Ry
     estimated scf accuracy    <          4.6E-10 Ry

     iteration # 46     ecut=   100.00 Ry     beta= 0.70
     Davidson diagonalization with overlap
     ethr =  4.11E-13,  avg # of iterations =  1.0

     total cpu time spent up to now is       97.9 secs

     total energy              =    -926.01569838 Ry
     Harris-Foulkes estimate   =    -926.01569838 Ry
     estimated scf accuracy    <          3.7E-10 Ry

     iteration # 47     ecut=   100.00 Ry     beta= 0.70
     Davidson diagonalization with overlap
     ethr =  3.27E-13,  avg # of iterations =  3.8

     total cpu time spent up to now is       98.6 secs

     total energy              =    -926.01569838 Ry
     Harris-Foulkes estimate   =    -926.01569838 Ry
     estimated scf accuracy    <          5.2E-11 Ry

     iteration # 48     ecut=   100.00 Ry     beta= 0.70
     Davidson diagonalization with overlap
     ethr =  1.00E-13,  avg # of iterations =  4.2

     total cpu time spent up to now is       99.6 secs

     total energy              =    -926.01569838 Ry
     Harris-Foulkes estimate   =    -926.01569838 Ry
     estimated scf accuracy    <          2.9E-11 Ry

     iteration # 49     ecut=   100.00 Ry     beta= 0.70
     Davidson diagonalization with overlap
     ethr =  1.00E-13,  avg # of iterations =  1.0

     total cpu time spent up to now is      100.1 secs

     total energy              =    -926.01569838 Ry
     Harris-Foulkes estimate   =    -926.01569838 Ry
     estimated scf accuracy    <          1.6E-11 Ry

     iteration # 50     ecut=   100.00 Ry     beta= 0.70
     Davidson diagonalization with overlap
     ethr =  1.00E-13,  avg # of iterations =  1.0

     total cpu time spent up to now is      100.7 secs

     total energy              =    -926.01569838 Ry
     Harris-Foulkes estimate   =    -926.01569838 Ry
     estimated scf accuracy    <          2.6E-12 Ry

     iteration # 51     ecut=   100.00 Ry     beta= 0.70
     Davidson diagonalization with overlap
     ethr =  1.00E-13,  avg # of iterations =  1.0

     total cpu time spent up to now is      101.3 secs

     End of self-consistent calculation

          k = 0.0000 0.0000 0.0000 ( 22307 PWs)   bands (ev):

   -61.0448 -61.0430 -61.0359 -61.0341 -35.0222 -35.0200 -35.0127 -35.0083
   -34.9378 -34.8911 -34.8734 -34.8433 -34.8411 -34.8285 -34.8145 -34.8124
   -14.2451 -14.1316 -13.2646 -13.1173 -13.0489 -13.0465 -12.7030 -12.6980
   -12.5681 -12.5618  -1.0985  -1.0879  -1.0172  -0.9091  -0.8147  -0.4124
     0.2415   0.3268   0.5112   0.5979   0.7278   0.7705   0.8757   0.9212
     0.9843   1.0102   1.2814   1.3133   1.4200   1.4630   1.5735   1.5871
     1.7873   2.0227   2.1497   2.1776   2.3005   2.4742   2.4798   2.5667

          k = 0.0000 0.2546 0.0000 ( 22290 PWs)   bands (ev):

   -61.0447 -61.0430 -61.0359 -61.0341 -35.0229 -35.0207 -35.0142 -35.0097
   -34.9376 -34.8909 -34.8733 -34.8432 -34.8410 -34.8285 -34.8145 -34.8124
   -14.1980 -14.0925 -13.2206 -13.0998 -13.0477 -13.0312 -12.7191 -12.6948
   -12.5716 -12.5428  -1.1277  -1.1167  -1.0420  -0.9410  -0.9164  -0.5710
    -0.4327  -0.1987  -0.1595  -0.0253   0.4187   0.5475   0.6043   0.9651
     1.0706   1.2849   1.4423   1.4563   1.5943   1.6578   1.7861   1.8782
     2.1433   2.1513   2.1659   2.3359   2.3868   2.5769   2.6532   2.7313

          k = 0.3331 0.0000 0.0000 ( 22252 PWs)   bands (ev):

   -61.0412 -61.0394 -61.0367 -61.0350 -35.0168 -35.0148 -35.0112 -35.0078
   -34.9344 -34.9113 -34.8981 -34.8897 -34.8528 -34.8468 -34.8340 -34.8265
   -13.7220 -13.5944 -13.1751 -13.0136 -13.0099 -13.0049 -12.6466 -12.6459
   -12.6114 -12.5861  -1.5596  -1.4889  -0.8180  -0.7580  -0.7241  -0.3498
    -0.2560   0.0993   0.1199   0.4014   0.4125   0.4591   0.7820   0.8974
     0.9421   0.9733   0.9905   1.0755   1.2313   1.2444   1.4297   1.4736
     1.5259   1.9184   2.2135   2.2827   2.4092   2.5605   2.7535   2.7771

          k = 0.3331 0.2546 0.0000 ( 22300 PWs)   bands (ev):

   -61.0411 -61.0394 -61.0367 -61.0350 -35.0177 -35.0156 -35.0124 -35.0090
   -34.9343 -34.9112 -34.8980 -34.8896 -34.8528 -34.8468 -34.8340 -34.8265
   -13.6806 -13.5651 -13.1432 -13.0117 -13.0015 -12.9917 -12.6558 -12.6368
   -12.5821 -12.5602  -1.5581  -1.4862  -0.8555  -0.8134  -0.7948  -0.4559
    -0.4028  -0.2875  -0.1897  -0.0242   0.0424   0.1911   0.5312   0.5820
     0.6438   0.7239   0.8119   0.9103   0.9834   1.4271   1.6679   1.8317
     2.0515   2.1214   2.4312   2.6546   2.6626   2.7972   2.8845   2.9014

     highest occupied level (ev):     2.9014

!    total energy              =    -926.01569838 Ry
     Harris-Foulkes estimate   =    -926.01569838 Ry
     estimated scf accuracy    <          2.8E-13 Ry

     The total energy is the sum of the following terms:

     one-electron contribution =    -627.76728585 Ry
     hartree contribution      =     350.59316017 Ry
     xc contribution           =    -178.12817642 Ry
     ewald contribution        =    -470.71339628 Ry

     convergence has been achieved in  51 iterations

     Forces acting on atoms (cartesian axes, Ry/au):

     atom    1 type  1   force =     0.00000000    0.00117116   -0.00002430
     atom    2 type  1   force =     0.00000000   -0.00117116    0.00002430
     atom    3 type  1   force =     0.00000000   -0.00117116   -0.00002430
     atom    4 type  1   force =     0.00000000    0.00117116    0.00002430
     atom    5 type  2   force =     0.00000000   -0.00016197    0.00016304
     atom    6 type  2   force =     0.00000000    0.00016197   -0.00016304
     atom    7 type  2   force =     0.00000000    0.00016197    0.00016304
     atom    8 type  2   force =     0.00000000   -0.00016197   -0.00016304
     atom    9 type  2   force =     0.00000000   -0.00013553    0.00012525
     atom   10 type  2   force =     0.00000000    0.00013553   -0.00012525
     atom   11 type  2   force =     0.00000000    0.00013553    0.00012525
     atom   12 type  2   force =    -0.00000000    0.00036087   -0.00000000
     atom   13 type  2   force =     0.00000000   -0.00036087   -0.00000000
     atom   14 type  2   force =     0.00000000   -0.00013553   -0.00012525

     Total force =     0.002469     Total SCF correction =     0.000002


     Computing stress (Cartesian axis) and pressure

          total   stress  (Ry/bohr**3)                   (kbar)     P=   -0.01
  -0.00000678   0.00000000   0.00000000         -1.00      0.00      0.00
   0.00000000   0.00001110   0.00000000          0.00      1.63      0.00
   0.00000000   0.00000000  -0.00000453          0.00      0.00     -0.67


     number of scf cycles    =   3
     number of bfgs steps    =   2

     enthalpy old            =    -926.0156947714 Ry
     enthalpy new            =    -926.0156983842 Ry

     CASE: enthalpy_new < enthalpy_old

     new trust radius        =       0.0016403551 bohr
     new conv_thr            =            1.0E-12 Ry

     new unit-cell volume =   1322.83818 a.u.^3 (   196.02439 Ang^3 )
     density =      3.08144 g/cm^3

CELL_PARAMETERS (alat=  6.76758343)
   1.000578872   0.000000000   0.000000000
   0.000000000   1.309429000   0.000000000
   0.000000000   0.000000000   3.257411173

ATOMIC_POSITIONS (crystal)
V        0.000000000   0.388496277   0.647696893
V        0.500000007   0.611503736   0.852303128
V        0.500000007   0.611503736   0.147696886
V        0.000000000   0.388496277   0.352303121
O        0.500000007   0.493635605   0.681244100
O        0.000000000   0.506364409   0.818755922
O        0.000000000   0.506364409   0.181244092
O        0.500000007   0.493635605   0.318755915
O        0.000000000   0.049133546   0.356816026
O        0.500000007   0.950866468   0.143183981
O        0.500000007   0.950866468   0.856816033
O        0.500000007   0.500605310  -0.000000000
O       -0.000000000   0.499394703   0.500000007
O        0.000000000   0.049133546   0.643183988



     Writing output data file v2o5.save/
     NEW-OLD atomic charge density approx. for the potential
     extrapolated charge  112.01687, renormalised to  112.00000

     total cpu time spent up to now is      103.7 secs

     Self-consistent Calculation

     iteration #  1     ecut=   100.00 Ry     beta= 0.70
     Davidson diagonalization with overlap
     ethr =  1.00E-06,  avg # of iterations =  2.0

     Threshold (ethr) on eigenvalues was too large:
     Diagonalizing with lowered threshold

     Davidson diagonalization with overlap
     ethr =  2.22E-08,  avg # of iterations =  4.0

     total cpu time spent up to now is      105.6 secs

     total energy              =    -926.01560928 Ry
     Harris-Foulkes estimate   =    -925.93813399 Ry
     estimated scf accuracy    <       0.00009233 Ry

     iteration #  2     ecut=   100.00 Ry     beta= 0.70
     Davidson diagonalization with overlap
     ethr =  8.24E-08,  avg # of iterations =  5.8

     total cpu time spent up to now is      107.0 secs

     total energy              =    -926.01550666 Ry
     Harris-Foulkes estimate   =    -926.01602847 Ry
     estimated scf accuracy    <       0.00281416 Ry

     iteration #  3     ecut=   100.00 Ry     beta= 0.70
     Davidson diagonalization with overlap
     ethr =  8.24E-08,  avg # of iterations =  5.0

     total cpu time spent up to now is      108.4 secs

     total energy              =    -926.01570567 Ry
     Harris-Foulkes estimate   =    -926.01571328 Ry
     estimated scf accuracy    <       0.00005770 Ry

     iteration #  4     ecut=   100.00 Ry     beta= 0.70
     Davidson diagonalization with overlap
     ethr =  5.15E-08,  avg # of iterations =  1.0

     total cpu time spent up to now is      109.0 secs

     total energy              =    -926.01570011 Ry
     Harris-Foulkes estimate   =    -926.01570666 Ry
     estimated scf accuracy    <       0.00004116 Ry

     iteration #  5     ecut=   100.00 Ry     beta= 0.70
     Davidson diagonalization with overlap
     ethr =  3.67E-08,  avg # of iterations =  3.0

     total cpu time spent up to now is      109.7 secs

     total energy              =    -926.01570201 Ry
     Harris-Foulkes estimate   =    -926.01570203 Ry
     estimated scf accuracy    <       0.00001514 Ry

     iteration #  6     ecut=   100.00 Ry     beta= 0.70
     Davidson diagonalization with overlap
     ethr =  1.35E-08,  avg # of iterations =  4.0

     total cpu time spent up to now is      110.4 secs

     total energy              =    -926.01570267 Ry
     Harris-Foulkes estimate   =    -926.01570336 Ry
     estimated scf accuracy    <       0.00000719 Ry

     iteration #  7     ecut=   100.00 Ry     beta= 0.70
     Davidson diagonalization with overlap
     ethr =  6.42E-09,  avg # of iterations =  4.0

     total cpu time spent up to now is      111.3 secs

     total energy              =    -926.01570412 Ry
     Harris-Foulkes estimate   =    -926.01570411 Ry
     estimated scf accuracy    <       0.00000186 Ry

     iteration #  8     ecut=   100.00 Ry     beta= 0.70
     Davidson diagonalization with overlap
     ethr =  1.66E-09,  avg # of iterations =  3.2

     total cpu time spent up to now is      112.0 secs

     total energy              =    -926.01570407 Ry
     Harris-Foulkes estimate   =    -926.01570418 Ry
     estimated scf accuracy    <       0.00000229 Ry

     iteration #  9     ecut=   100.00 Ry     beta= 0.70
     Davidson diagonalization with overlap
     ethr =  1.66E-09,  avg # of iterations =  4.0

     total cpu time spent up to now is      112.8 secs

     total energy              =    -926.01570438 Ry
     Harris-Foulkes estimate   =    -926.01570423 Ry
     estimated scf accuracy    <       0.00000281 Ry

     iteration # 10     ecut=   100.00 Ry     beta= 0.70
     Davidson diagonalization with overlap
     ethr =  1.66E-09,  avg # of iterations =  4.0

     total cpu time spent up to now is      113.8 secs

     total energy              =    -926.01570486 Ry
     Harris-Foulkes estimate   =    -926.01570506 Ry
     estimated scf accuracy    <       0.00001061 Ry

     iteration # 11     ecut=   100.00 Ry     beta= 0.70
     Davidson diagonalization with overlap
     ethr =  1.66E-09,  avg # of iterations =  1.0

     total cpu time spent up to now is      114.4 secs

     total energy              =    -926.01570383 Ry
     Harris-Foulkes estimate   =    -926.01570489 Ry
     estimated scf accuracy    <       0.00001002 Ry

     iteration # 12     ecut=   100.00 Ry     beta= 0.70
     Davidson diagonalization with overlap
     ethr =  1.66E-09,  avg # of iterations =  5.0

     total cpu time spent up to now is      115.7 secs

     total energy              =    -926.01570568 Ry
     Harris-Foulkes estimate   =    -926.01570536 Ry
     estimated scf accuracy    <       0.00000824 Ry

     iteration # 13     ecut=   100.00 Ry     beta= 0.70
     Davidson diagonalization with overlap
     ethr =  1.66E-09,  avg # of iterations =  1.0

     total cpu time spent up to now is      116.2 secs

     total energy              =    -926.01570573 Ry
     Harris-Foulkes estimate   =    -926.01570569 Ry
     estimated scf accuracy    <       0.00000919 Ry

     iteration # 14     ecut=   100.00 Ry     beta= 0.70
     Davidson diagonalization with overlap
     ethr =  1.66E-09,  avg # of iterations =  1.0

     total cpu time spent up to now is      116.8 secs

     total energy              =    -926.01570221 Ry
     Harris-Foulkes estimate   =    -926.01570573 Ry
     estimated scf accuracy    <       0.00000936 Ry

     iteration # 15     ecut=   100.00 Ry     beta= 0.70
     Davidson diagonalization with overlap
     ethr =  1.66E-09,  avg # of iterations =  6.0

     total cpu time spent up to now is      118.4 secs

     total energy              =    -926.01565656 Ry
     Harris-Foulkes estimate   =    -926.01575127 Ry
     estimated scf accuracy    <       0.00036337 Ry

     iteration # 16     ecut=   100.00 Ry     beta= 0.70
     Davidson diagonalization with overlap
     ethr =  1.66E-09,  avg # of iterations =  6.0

     total cpu time spent up to now is      119.9 secs

     total energy              =    -926.01570421 Ry
     Harris-Foulkes estimate   =    -926.01570436 Ry
     estimated scf accuracy    <       0.00000383 Ry

     iteration # 17     ecut=   100.00 Ry     beta= 0.70
     Davidson diagonalization with overlap
     ethr =  1.66E-09,  avg # of iterations =  1.0

     total cpu time spent up to now is      120.5 secs

     total energy              =    -926.01570331 Ry
     Harris-Foulkes estimate   =    -926.01570422 Ry
     estimated scf accuracy    <       0.00000357 Ry

     iteration # 18     ecut=   100.00 Ry     beta= 0.70
     Davidson diagonalization with overlap
     ethr =  1.66E-09,  avg # of iterations =  4.2

     total cpu time spent up to now is      121.6 secs

     total energy              =    -926.01570361 Ry
     Harris-Foulkes estimate   =    -926.01570394 Ry
     estimated scf accuracy    <       0.00000138 Ry

     iteration # 19     ecut=   100.00 Ry     beta= 0.70
     Davidson diagonalization with overlap
     ethr =  1.23E-09,  avg # of iterations =  3.0

     total cpu time spent up to now is      122.2 secs

     total energy              =    -926.01570356 Ry
     Harris-Foulkes estimate   =    -926.01570366 Ry
     estimated scf accuracy    <       0.00000050 Ry

     iteration # 20     ecut=   100.00 Ry     beta= 0.70
     Davidson diagonalization with overlap
     ethr =  4.44E-10,  avg # of iterations =  4.0

     total cpu time spent up to now is      123.2 secs

     total energy              =    -926.01570371 Ry
     Harris-Foulkes estimate   =    -926.01570373 Ry
     estimated scf accuracy    <       0.00000008 Ry

     iteration # 21     ecut=   100.00 Ry     beta= 0.70
     Davidson diagonalization with overlap
     ethr =  6.97E-11,  avg # of iterations =  2.8

     total cpu time spent up to now is      123.9 secs

     total energy              =    -926.01570371 Ry
     Harris-Foulkes estimate   =    -926.01570372 Ry
     estimated scf accuracy    <       0.00000005 Ry

     iteration # 22     ecut=   100.00 Ry     beta= 0.70
     Davidson diagonalization with overlap
     ethr =  4.29E-11,  avg # of iterations =  4.0

     total cpu time spent up to now is      124.7 secs

     total energy              =    -926.01570371 Ry
     Harris-Foulkes estimate   =    -926.01570371 Ry
     estimated scf accuracy    <          4.1E-09 Ry

     iteration # 23     ecut=   100.00 Ry     beta= 0.70
     Davidson diagonalization with overlap
     ethr =  3.62E-12,  avg # of iterations =  4.8

     total cpu time spent up to now is      125.7 secs

     total energy              =    -926.01570371 Ry
     Harris-Foulkes estimate   =    -926.01570371 Ry
     estimated scf accuracy    <          3.5E-09 Ry

     iteration # 24     ecut=   100.00 Ry     beta= 0.70
     Davidson diagonalization with overlap
     ethr =  3.08E-12,  avg # of iterations =  1.0

     total cpu time spent up to now is      126.3 secs

     total energy              =    -926.01570371 Ry
     Harris-Foulkes estimate   =    -926.01570371 Ry
     estimated scf accuracy    <          2.0E-09 Ry

     iteration # 25     ecut=   100.00 Ry     beta= 0.70
     Davidson diagonalization with overlap
     ethr =  1.78E-12,  avg # of iterations =  4.0

     total cpu time spent up to now is      127.1 secs

     total energy              =    -926.01570371 Ry
     Harris-Foulkes estimate   =    -926.01570371 Ry
     estimated scf accuracy    <          3.0E-10 Ry

     iteration # 26     ecut=   100.00 Ry     beta= 0.70
     Davidson diagonalization with overlap
     ethr =  2.67E-13,  avg # of iterations =  4.8

     total cpu time spent up to now is      127.9 secs

     total energy              =    -926.01570371 Ry
     Harris-Foulkes estimate   =    -926.01570371 Ry
     estimated scf accuracy    <          1.2E-10 Ry

     iteration # 27     ecut=   100.00 Ry     beta= 0.70
     Davidson diagonalization with overlap
     ethr =  1.04E-13,  avg # of iterations =  1.5

     total cpu time spent up to now is      128.5 secs

     total energy              =    -926.01570371 Ry
     Harris-Foulkes estimate   =    -926.01570371 Ry
     estimated scf accuracy    <          1.0E-10 Ry

     iteration # 28     ecut=   100.00 Ry     beta= 0.70
     Davidson diagonalization with overlap
     ethr =  1.00E-13,  avg # of iterations =  3.2

     total cpu time spent up to now is      129.2 secs

     total energy              =    -926.01570371 Ry
     Harris-Foulkes estimate   =    -926.01570371 Ry
     estimated scf accuracy    <          3.4E-11 Ry

     iteration # 29     ecut=   100.00 Ry     beta= 0.70
     Davidson diagonalization with overlap
     ethr =  1.00E-13,  avg # of iterations =  4.0

     total cpu time spent up to now is      130.0 secs

     total energy              =    -926.01570371 Ry
     Harris-Foulkes estimate   =    -926.01570371 Ry
     estimated scf accuracy    <          9.8E-12 Ry

     iteration # 30     ecut=   100.00 Ry     beta= 0.70
     Davidson diagonalization with overlap
     ethr =  1.00E-13,  avg # of iterations =  1.0

     total cpu time spent up to now is      130.6 secs

     total energy              =    -926.01570371 Ry
     Harris-Foulkes estimate   =    -926.01570371 Ry
     estimated scf accuracy    <          7.6E-12 Ry

     iteration # 31     ecut=   100.00 Ry     beta= 0.70
     Davidson diagonalization with overlap
     ethr =  1.00E-13,  avg # of iterations =  1.0

     total cpu time spent up to now is      131.2 secs

     total energy              =    -926.01570371 Ry
     Harris-Foulkes estimate   =    -926.01570371 Ry
     estimated scf accuracy    <          8.4E-12 Ry

     iteration # 32     ecut=   100.00 Ry     beta= 0.70
     Davidson diagonalization with overlap
     ethr =  1.00E-13,  avg # of iterations =  1.0

     total cpu time spent up to now is      131.8 secs

     total energy              =    -926.01570371 Ry
     Harris-Foulkes estimate   =    -926.01570371 Ry
     estimated scf accuracy    <          7.8E-12 Ry

     iteration # 33     ecut=   100.00 Ry     beta= 0.70
     Davidson diagonalization with overlap
     ethr =  1.00E-13,  avg # of iterations =  1.0

     total cpu time spent up to now is      132.4 secs

     total energy              =    -926.01570371 Ry
     Harris-Foulkes estimate   =    -926.01570371 Ry
     estimated scf accuracy    <          7.1E-12 Ry

     iteration # 34     ecut=   100.00 Ry     beta= 0.70
     Davidson diagonalization with overlap
     ethr =  1.00E-13,  avg # of iterations =  1.0

     total cpu time spent up to now is      133.0 secs

     total energy              =    -926.01570371 Ry
     Harris-Foulkes estimate   =    -926.01570371 Ry
     estimated scf accuracy    <          9.9E-12 Ry

     iteration # 35     ecut=   100.00 Ry     beta= 0.70
     Davidson diagonalization with overlap
     ethr =  1.00E-13,  avg # of iterations =  1.0

     total cpu time spent up to now is      133.6 secs

     total energy              =    -926.01570371 Ry
     Harris-Foulkes estimate   =    -926.01570371 Ry
     estimated scf accuracy    <          6.8E-12 Ry

     iteration # 36     ecut=   100.00 Ry     beta= 0.70
     Davidson diagonalization with overlap
     ethr =  1.00E-13,  avg # of iterations =  1.0

     total cpu time spent up to now is      134.1 secs

     total energy              =    -926.01570371 Ry
     Harris-Foulkes estimate   =    -926.01570371 Ry
     estimated scf accuracy    <          1.3E-12 Ry

     iteration # 37     ecut=   100.00 Ry     beta= 0.70
     Davidson diagonalization with overlap
     ethr =  1.00E-13,  avg # of iterations =  1.0

     total cpu time spent up to now is      134.7 secs

     End of self-consistent calculation

          k = 0.0000 0.0000 0.0000 ( 22307 PWs)   bands (ev):

   -61.0469 -61.0451 -61.0380 -61.0362 -35.0233 -35.0211 -35.0138 -35.0093
   -34.9403 -34.8935 -34.8758 -34.8456 -34.8434 -34.8309 -34.8168 -34.8147
   -14.2483 -14.1347 -13.2675 -13.1200 -13.0522 -13.0498 -12.7036 -12.6982
   -12.5684 -12.5623  -1.1017  -1.0911  -1.0213  -0.9126  -0.8182  -0.4149
     0.2390   0.3261   0.5095   0.5950   0.7270   0.7696   0.8755   0.9210
     0.9837   1.0099   1.2798   1.3140   1.4162   1.4642   1.5726   1.5867
     1.7857   2.0196   2.1491   2.1771   2.2979   2.4732   2.4774   2.5649

          k = 0.0000 0.2546 0.0000 ( 22290 PWs)   bands (ev):

   -61.0468 -61.0451 -61.0380 -61.0362 -35.0240 -35.0217 -35.0153 -35.0108
   -34.9401 -34.8933 -34.8758 -34.8455 -34.8434 -34.8309 -34.8168 -34.8147
   -14.2014 -14.0957 -13.2237 -13.1026 -13.0510 -13.0347 -12.7195 -12.6950
   -12.5719 -12.5431  -1.1308  -1.1197  -1.0456  -0.9444  -0.9195  -0.5715
    -0.4349  -0.2000  -0.1600  -0.0259   0.4188   0.5473   0.6041   0.9648
     1.0707   1.2825   1.4382   1.4543   1.5922   1.6585   1.7856   1.8785
     2.1423   2.1503   2.1629   2.3334   2.3843   2.5749   2.6508   2.7297

          k = 0.3331 0.0000 0.0000 ( 22252 PWs)   bands (ev):

   -61.0432 -61.0415 -61.0388 -61.0371 -35.0179 -35.0158 -35.0122 -35.0088
   -34.9369 -34.9138 -34.9005 -34.8921 -34.8552 -34.8491 -34.8364 -34.8289
   -13.7250 -13.5972 -13.1783 -13.0165 -13.0126 -13.0082 -12.6468 -12.6465
   -12.6114 -12.5866  -1.5631  -1.4922  -0.8217  -0.7611  -0.7277  -0.3522
    -0.2584   0.0974   0.1171   0.3999   0.4111   0.4581   0.7805   0.8968
     0.9418   0.9728   0.9899   1.0751   1.2304   1.2445   1.4289   1.4706
     1.5262   1.9171   2.2119   2.2822   2.4078   2.5596   2.7511   2.7738

          k = 0.3331 0.2546 0.0000 ( 22300 PWs)   bands (ev):

   -61.0432 -61.0415 -61.0388 -61.0371 -35.0187 -35.0166 -35.0135 -35.0100
   -34.9367 -34.9137 -34.9004 -34.8920 -34.8552 -34.8491 -34.8364 -34.8289
   -13.6838 -13.5681 -13.1468 -13.0146 -13.0043 -12.9951 -12.6562 -12.6369
   -12.5824 -12.5603  -1.5615  -1.4895  -0.8589  -0.8161  -0.7979  -0.4568
    -0.4051  -0.2895  -0.1908  -0.0251   0.0417   0.1891   0.5315   0.5802
     0.6427   0.7236   0.8115   0.9090   0.9831   1.4273   1.6654   1.8317
     2.0497   2.1197   2.4300   2.6529   2.6603   2.7955   2.8814   2.8992

     highest occupied level (ev):     2.8992

!    total energy              =    -926.01570371 Ry
     Harris-Foulkes estimate   =    -926.01570371 Ry
     estimated scf accuracy    <          1.2E-13 Ry

     The total energy is the sum of the following terms:

     one-electron contribution =    -627.90392429 Ry
     hartree contribution      =     350.65350299 Ry
     xc contribution           =    -178.12731239 Ry
     ewald contribution        =    -470.63797002 Ry

     convergence has been achieved in  37 iterations

     Forces acting on atoms (cartesian axes, Ry/au):

     atom    1 type  1   force =    -0.00000000    0.00037500    0.00005435
     atom    2 type  1   force =     0.00000000   -0.00037500   -0.00005435
     atom    3 type  1   force =     0.00000000   -0.00037500    0.00005435
     atom    4 type  1   force =    -0.00000000    0.00037500   -0.00005435
     atom    5 type  2   force =     0.00000000   -0.00012107    0.00010596
     atom    6 type  2   force =     0.00000000    0.00012107   -0.00010596
     atom    7 type  2   force =     0.00000000    0.00012107    0.00010596
     atom    8 type  2   force =    -0.00000000   -0.00012107   -0.00010596
     atom    9 type  2   force =     0.00000000    0.00050192    0.00010656
     atom   10 type  2   force =     0.00000000   -0.00050192   -0.00010656
     atom   11 type  2   force =     0.00000000   -0.00050192    0.00010656
     atom   12 type  2   force =    -0.00000000    0.00022162    0.00000000
     atom   13 type  2   force =     0.00000000   -0.00022162    0.00000000
     atom   14 type  2   force =    -0.00000000    0.00050192   -0.00010656

     Total force =     0.001352     Total SCF correction =     0.000001


     Computing stress (Cartesian axis) and pressure

          total   stress  (Ry/bohr**3)                   (kbar)     P=   -0.16
  -0.00000561   0.00000000   0.00000000         -0.83      0.00      0.00
   0.00000000   0.00000509   0.00000000          0.00      0.75      0.00
   0.00000000   0.00000000  -0.00000271          0.00      0.00     -0.40


     number of scf cycles    =   4
     number of bfgs steps    =   3

     enthalpy old            =    -926.0156983842 Ry
     enthalpy new            =    -926.0157037139 Ry

     CASE: enthalpy_new < enthalpy_old

     new trust radius        =       0.0024601632 bohr
     new conv_thr            =            1.0E-12 Ry

     new unit-cell volume =   1323.22368 a.u.^3 (   196.08152 Ang^3 )
     density =      3.08054 g/cm^3

CELL_PARAMETERS (alat=  6.76758343)
   1.000500345   0.000000000   0.000000000
[...]

     Self-consistent Calculation

     iteration #  1     ecut=   100.00 Ry     beta= 0.70
     Davidson diagonalization with overlap
     ethr =  1.00E-06,  avg # of iterations =  7.5

     total cpu time spent up to now is      219.2 secs

     total energy              =    -920.75946202 Ry
     Harris-Foulkes estimate   =    -927.70444343 Ry
     estimated scf accuracy    <       8.69179291 Ry

     iteration #  2     ecut=   100.00 Ry     beta= 0.70
     Davidson diagonalization with overlap
     ethr =  7.76E-03,  avg # of iterations =  6.2

     total cpu time spent up to now is      220.7 secs

     total energy              =    -911.04768487 Ry
     Harris-Foulkes estimate   =    -945.14900152 Ry
     estimated scf accuracy    <     152.75988108 Ry

     iteration #  3     ecut=   100.00 Ry     beta= 0.70
     Davidson diagonalization with overlap
     ethr =  7.76E-03,  avg # of iterations =  5.5

     total cpu time spent up to now is      222.2 secs

     total energy              =    -925.70747617 Ry
     Harris-Foulkes estimate   =    -926.65559248 Ry
     estimated scf accuracy    <       3.02749986 Ry

     iteration #  4     ecut=   100.00 Ry     beta= 0.70
     Davidson diagonalization with overlap
     ethr =  2.70E-03,  avg # of iterations =  4.0

     total cpu time spent up to now is      223.1 secs

     total energy              =    -925.95546151 Ry
     Harris-Foulkes estimate   =    -926.10645553 Ry
     estimated scf accuracy    <       0.91260210 Ry

     iteration #  5     ecut=   100.00 Ry     beta= 0.70
     Davidson diagonalization with overlap
     ethr =  8.15E-04,  avg # of iterations =  3.8

     total cpu time spent up to now is      223.8 secs

     total energy              =    -925.87351529 Ry
     Harris-Foulkes estimate   =    -926.01923208 Ry
     estimated scf accuracy    <       0.49356201 Ry

     iteration #  6     ecut=   100.00 Ry     beta= 0.70
     Davidson diagonalization with overlap
     ethr =  4.41E-04,  avg # of iterations =  4.0

     total cpu time spent up to now is      224.8 secs

     total energy              =    -926.02381896 Ry
     Harris-Foulkes estimate   =    -926.04796756 Ry
     estimated scf accuracy    <       0.26473165 Ry

     iteration #  7     ecut=   100.00 Ry     beta= 0.70
     Davidson diagonalization with overlap
     ethr =  2.36E-04,  avg # of iterations =  1.0

     total cpu time spent up to now is      225.4 secs

     total energy              =    -925.98580199 Ry
     Harris-Foulkes estimate   =    -926.02648064 Ry
     estimated scf accuracy    <       0.20084754 Ry

     iteration #  8     ecut=   100.00 Ry     beta= 0.70
     Davidson diagonalization with overlap
     ethr =  1.79E-04,  avg # of iterations =  3.5

     total cpu time spent up to now is      226.2 secs

     total energy              =    -926.01121300 Ry
     Harris-Foulkes estimate   =    -926.01337673 Ry
     estimated scf accuracy    <       0.00803654 Ry

     iteration #  9     ecut=   100.00 Ry     beta= 0.70
     Davidson diagonalization with overlap
     ethr =  7.18E-06,  avg # of iterations =  5.5

     total cpu time spent up to now is      227.4 secs

     total energy              =    -926.01610688 Ry
     Harris-Foulkes estimate   =    -926.01704920 Ry
     estimated scf accuracy    <       0.01178985 Ry

     iteration # 10     ecut=   100.00 Ry     beta= 0.70
     Davidson diagonalization with overlap
     ethr =  7.18E-06,  avg # of iterations =  1.0

     total cpu time spent up to now is      228.0 secs

     total energy              =    -926.01403602 Ry
     Harris-Foulkes estimate   =    -926.01620378 Ry
     estimated scf accuracy    <       0.00898350 Ry

     iteration # 11     ecut=   100.00 Ry     beta= 0.70
     Davidson diagonalization with overlap
     ethr =  7.18E-06,  avg # of iterations =  4.0

     total cpu time spent up to now is      228.9 secs

     total energy              =    -926.01550852 Ry
     Harris-Foulkes estimate   =    -926.01586561 Ry
     estimated scf accuracy    <       0.00134943 Ry

     iteration # 12     ecut=   100.00 Ry     beta= 0.70
     Davidson diagonalization with overlap
     ethr =  1.20E-06,  avg # of iterations =  4.0

     total cpu time spent up to now is      229.7 secs

     total energy              =    -926.01563027 Ry
     Harris-Foulkes estimate   =    -926.01566432 Ry
     estimated scf accuracy    <       0.00010940 Ry

     iteration # 13     ecut=   100.00 Ry     beta= 0.70
     Davidson diagonalization with overlap
     ethr =  9.77E-08,  avg # of iterations =  5.0

     total cpu time spent up to now is      231.1 secs

     total energy              =    -926.01571009 Ry
     Harris-Foulkes estimate   =    -926.01575957 Ry
     estimated scf accuracy    <       0.00031414 Ry

     iteration # 14     ecut=   100.00 Ry     beta= 0.70
     Davidson diagonalization with overlap
     ethr =  9.77E-08,  avg # of iterations =  3.0

     total cpu time spent up to now is      231.8 secs

     total energy              =    -926.01569848 Ry
     Harris-Foulkes estimate   =    -926.01571885 Ry
     estimated scf accuracy    <       0.00010403 Ry

     iteration # 15     ecut=   100.00 Ry     beta= 0.70
     Davidson diagonalization with overlap
     ethr =  9.29E-08,  avg # of iterations =  3.8

     total cpu time spent up to now is      232.7 secs

     total energy              =    -926.01571573 Ry
     Harris-Foulkes estimate   =    -926.01571587 Ry
     estimated scf accuracy    <       0.00000040 Ry

     iteration # 16     ecut=   100.00 Ry     beta= 0.70
     Davidson diagonalization with overlap
     ethr =  3.59E-10,  avg # of iterations =  6.0

     total cpu time spent up to now is      234.1 secs

     total energy              =    -926.01571825 Ry
     Harris-Foulkes estimate   =    -926.01571910 Ry
     estimated scf accuracy    <       0.00000700 Ry

     iteration # 17     ecut=   100.00 Ry     beta= 0.70
     Davidson diagonalization with overlap
     ethr =  3.59E-10,  avg # of iterations =  4.8

     total cpu time spent up to now is      235.3 secs

     total energy              =    -926.01571807 Ry
     Harris-Foulkes estimate   =    -926.01571845 Ry
     estimated scf accuracy    <       0.00000154 Ry

     iteration # 18     ecut=   100.00 Ry     beta= 0.70
     Davidson diagonalization with overlap
     ethr =  3.59E-10,  avg # of iterations =  4.5

     total cpu time spent up to now is      236.5 secs

     total energy              =    -926.01571827 Ry
     Harris-Foulkes estimate   =    -926.01571828 Ry
     estimated scf accuracy    <       0.00000005 Ry

     iteration # 19     ecut=   100.00 Ry     beta= 0.70
     Davidson diagonalization with overlap
     ethr =  4.19E-11,  avg # of iterations =  1.0

     total cpu time spent up to now is      237.0 secs

     total energy              =    -926.01571827 Ry
     Harris-Foulkes estimate   =    -926.01571827 Ry
     estimated scf accuracy    <       0.00000003 Ry

     iteration # 20     ecut=   100.00 Ry     beta= 0.70
     Davidson diagonalization with overlap
     ethr =  3.02E-11,  avg # of iterations =  3.2

     total cpu time spent up to now is      237.8 secs

     total energy              =    -926.01571827 Ry
     Harris-Foulkes estimate   =    -926.01571827 Ry
     estimated scf accuracy    <          3.5E-09 Ry

     iteration # 21     ecut=   100.00 Ry     beta= 0.70
     Davidson diagonalization with overlap
     ethr =  3.10E-12,  avg # of iterations =  5.0

     total cpu time spent up to now is      239.0 secs

     total energy              =    -926.01571827 Ry
     Harris-Foulkes estimate   =    -926.01571827 Ry
     estimated scf accuracy    <          4.4E-09 Ry

     iteration # 22     ecut=   100.00 Ry     beta= 0.70
     Davidson diagonalization with overlap
     ethr =  3.10E-12,  avg # of iterations =  1.0

     total cpu time spent up to now is      239.6 secs

     total energy              =    -926.01571827 Ry
     Harris-Foulkes estimate   =    -926.01571827 Ry
     estimated scf accuracy    <          2.9E-09 Ry

     iteration # 23     ecut=   100.00 Ry     beta= 0.70
     Davidson diagonalization with overlap
     ethr =  2.57E-12,  avg # of iterations =  4.0

     total cpu time spent up to now is      240.6 secs

     total energy              =    -926.01571827 Ry
     Harris-Foulkes estimate   =    -926.01571827 Ry
     estimated scf accuracy    <          1.7E-09 Ry

     iteration # 24     ecut=   100.00 Ry     beta= 0.70
     Davidson diagonalization with overlap
     ethr =  1.48E-12,  avg # of iterations =  1.0

     total cpu time spent up to now is      241.2 secs

     total energy              =    -926.01571827 Ry
     Harris-Foulkes estimate   =    -926.01571827 Ry
     estimated scf accuracy    <          1.1E-09 Ry

     iteration # 25     ecut=   100.00 Ry     beta= 0.70
     Davidson diagonalization with overlap
     ethr =  9.40E-13,  avg # of iterations =  1.0

     total cpu time spent up to now is      241.8 secs

     total energy              =    -926.01571827 Ry
     Harris-Foulkes estimate   =    -926.01571827 Ry
     estimated scf accuracy    <          8.8E-10 Ry

     iteration # 26     ecut=   100.00 Ry     beta= 0.70
     Davidson diagonalization with overlap
     ethr =  7.84E-13,  avg # of iterations =  1.0

     total cpu time spent up to now is      242.5 secs

     total energy              =    -926.01571827 Ry
     Harris-Foulkes estimate   =    -926.01571827 Ry
     estimated scf accuracy    <          6.0E-10 Ry

     iteration # 27     ecut=   100.00 Ry     beta= 0.70
     Davidson diagonalization with overlap
     ethr =  5.33E-13,  avg # of iterations =  4.8

     total cpu time spent up to now is      243.3 secs

     total energy              =    -926.01571827 Ry
     Harris-Foulkes estimate   =    -926.01571827 Ry
     estimated scf accuracy    <          7.2E-12 Ry

     iteration # 28     ecut=   100.00 Ry     beta= 0.70
     Davidson diagonalization with overlap
     ethr =  1.00E-13,  avg # of iterations =  4.5

     total cpu time spent up to now is      244.2 secs

     total energy              =    -926.01571827 Ry
     Harris-Foulkes estimate   =    -926.01571827 Ry
     estimated scf accuracy    <          3.9E-11 Ry

     iteration # 29     ecut=   100.00 Ry     beta= 0.70
     Davidson diagonalization with overlap
     ethr =  1.00E-13,  avg # of iterations =  2.5

     total cpu time spent up to now is      244.8 secs

     total energy              =    -926.01571827 Ry
     Harris-Foulkes estimate   =    -926.01571827 Ry
     estimated scf accuracy    <          3.6E-12 Ry

     iteration # 30     ecut=   100.00 Ry     beta= 0.70
     Davidson diagonalization with overlap
     ethr =  1.00E-13,  avg # of iterations =  1.0

     total cpu time spent up to now is      245.4 secs

     total energy              =    -926.01571827 Ry
     Harris-Foulkes estimate   =    -926.01571827 Ry
     estimated scf accuracy    <          1.3E-11 Ry

     iteration # 31     ecut=   100.00 Ry     beta= 0.70
     Davidson diagonalization with overlap
     ethr =  1.00E-13,  avg # of iterations =  1.0

     total cpu time spent up to now is      246.0 secs

     total energy              =    -926.01571827 Ry
     Harris-Foulkes estimate   =    -926.01571827 Ry
     estimated scf accuracy    <          1.1E-11 Ry

     iteration # 32     ecut=   100.00 Ry     beta= 0.70
     Davidson diagonalization with overlap
     ethr =  1.00E-13,  avg # of iterations =  1.0

     total cpu time spent up to now is      246.6 secs

     total energy              =    -926.01571827 Ry
     Harris-Foulkes estimate   =    -926.01571827 Ry
     estimated scf accuracy    <          7.1E-12 Ry

     iteration # 33     ecut=   100.00 Ry     beta= 0.70
     Davidson diagonalization with overlap
     ethr =  1.00E-13,  avg # of iterations =  1.0

     total cpu time spent up to now is      247.1 secs

     total energy              =    -926.01571827 Ry
     Harris-Foulkes estimate   =    -926.01571827 Ry
     estimated scf accuracy    <          7.3E-12 Ry

     iteration # 34     ecut=   100.00 Ry     beta= 0.70
     Davidson diagonalization with overlap
     ethr =  1.00E-13,  avg # of iterations =  1.0

     total cpu time spent up to now is      247.7 secs

     total energy              =    -926.01571827 Ry
     Harris-Foulkes estimate   =    -926.01571827 Ry
     estimated scf accuracy    <          4.9E-12 Ry

     iteration # 35     ecut=   100.00 Ry     beta= 0.70
     Davidson diagonalization with overlap
     ethr =  1.00E-13,  avg # of iterations =  1.0

     total cpu time spent up to now is      248.3 secs

     total energy              =    -926.01571827 Ry
     Harris-Foulkes estimate   =    -926.01571827 Ry
     estimated scf accuracy    <          3.9E-12 Ry

     iteration # 36     ecut=   100.00 Ry     beta= 0.70
     Davidson diagonalization with overlap
     ethr =  1.00E-13,  avg # of iterations =  1.0

     total cpu time spent up to now is      248.9 secs

     End of self-consistent calculation

          k = 0.0000 0.0000 0.0000 ( 22395 PWs)   bands (ev):

   -61.0554 -61.0537 -61.0465 -61.0448 -35.0311 -35.0289 -35.0216 -35.0171
   -34.9493 -34.9025 -34.8847 -34.8544 -34.8523 -34.8398 -34.8257 -34.8235
   -14.2588 -14.1454 -13.2769 -13.1297 -13.0625 -13.0602 -12.7107 -12.7049
   -12.5753 -12.5697  -1.1132  -1.1025  -1.0331  -0.9245  -0.8288  -0.4247
     0.2281   0.3178   0.4991   0.5838   0.7186   0.7609   0.8669   0.9138
     0.9770   1.0014   1.2716   1.3082   1.4055   1.4591   1.5658   1.5787
     1.7789   2.0088   2.1418   2.1697   2.2882   2.4667   2.4684   2.5556

          k = 0.0000 0.2543 0.0000 ( 22376 PWs)   bands (ev):

   -61.0554 -61.0537 -61.0465 -61.0448 -35.0317 -35.0295 -35.0231 -35.0185
   -34.9491 -34.9023 -34.8847 -34.8543 -34.8522 -34.8398 -34.8257 -34.8235
   -14.2124 -14.1069 -13.2338 -13.1126 -13.0614 -13.0453 -12.7263 -12.7017
   -12.5791 -12.5501  -1.1418  -1.1307  -1.0567  -0.9559  -0.9297  -0.5776
    -0.4438  -0.2067  -0.1660  -0.0328   0.4132   0.5408   0.5972   0.9575
     1.0639   1.2736   1.4271   1.4450   1.5825   1.6521   1.7780   1.8707
     2.1343   2.1421   2.1515   2.3235   2.3745   2.5660   2.6403   2.7207

          k = 0.3332 0.0000 0.0000 ( 22304 PWs)   bands (ev):

   -61.0518 -61.0501 -61.0474 -61.0456 -35.0256 -35.0236 -35.0200 -35.0166
   -34.9459 -34.9227 -34.9095 -34.9011 -34.8642 -34.8581 -34.8453 -34.8378
   -13.7351 -13.6075 -13.1882 -13.0265 -13.0225 -13.0185 -12.6536 -12.6534
   -12.6178 -12.5939  -1.5743  -1.5032  -0.8325  -0.7713  -0.7383  -0.3618
    -0.2677   0.0881   0.1066   0.3900   0.4023   0.4493   0.7714   0.8884
     0.9339   0.9644   0.9811   1.0665   1.2213   1.2382   1.4229   1.4599
     1.5194   1.9095   2.2048   2.2752   2.3996   2.5531   2.7420   2.7632

          k = 0.3332 0.2543 0.0000 ( 22368 PWs)   bands (ev):

   -61.0518 -61.0501 -61.0474 -61.0456 -35.0265 -35.0244 -35.0212 -35.0178
   -34.9457 -34.9226 -34.9093 -34.9009 -34.8641 -34.8581 -34.8453 -34.8378
   -13.6944 -13.5788 -13.1572 -13.0246 -13.0142 -13.0056 -12.6630 -12.6436
   -12.5894 -12.5671  -1.5727  -1.5005  -0.8689  -0.8257  -0.8078  -0.4636
    -0.4142  -0.2980  -0.1978  -0.0315   0.0357   0.1800   0.5263   0.5720
     0.6350   0.7171   0.8048   0.9006   0.9755   1.4204   1.6547   1.8239
     2.0400   2.1109   2.4206   2.6433   2.6507   2.7864   2.8706   2.8894

     highest occupied level (ev):     2.8894

!    total energy              =    -926.01571827 Ry
     Harris-Foulkes estimate   =    -926.01571827 Ry
     estimated scf accuracy    <          2.0E-13 Ry

     The total energy is the sum of the following terms:

     one-electron contribution =    -628.59725726 Ry
     hartree contribution      =     350.96398455 Ry
     xc contribution           =    -178.12665660 Ry
     ewald contribution        =    -470.25578896 Ry

     convergence has been achieved in  36 iterations

     Forces acting on atoms (cartesian axes, Ry/au):

     atom    1 type  1   force =     0.00000000   -0.00041127    0.00010538
     atom    2 type  1   force =     0.00000000    0.00041127   -0.00010538
     atom    3 type  1   force =     0.00000000    0.00041127    0.00010538
     atom    4 type  1   force =     0.00000000   -0.00041127   -0.00010538
     atom    5 type  2   force =     0.00000000   -0.00001523   -0.00003851
     atom    6 type  2   force =     0.00000000    0.00001523    0.00003851
     atom    7 type  2   force =     0.00000000    0.00001523   -0.00003851
     atom    8 type  2   force =    -0.00000000   -0.00001523    0.00003851
     atom    9 type  2   force =     0.00000000    0.00097370    0.00005789
     atom   10 type  2   force =     0.00000000   -0.00097370   -0.00005789
     atom   11 type  2   force =    -0.00000000   -0.00097370    0.00005789
     atom   12 type  2   force =     0.00000000   -0.00004768    0.00000000
     atom   13 type  2   force =    -0.00000000    0.00004768    0.00000000
     atom   14 type  2   force =     0.00000000    0.00097370   -0.00005789

     Total force =     0.002130     Total SCF correction =     0.000001


     Computing stress (Cartesian axis) and pressure

          total   stress  (Ry/bohr**3)                   (kbar)     P=   -0.23
  -0.00000315   0.00000000   0.00000000         -0.46      0.00      0.00
   0.00000000  -0.00000035   0.00000000          0.00     -0.05      0.00
   0.00000000   0.00000000  -0.00000126          0.00      0.00     -0.19


     Writing output data file v2o5.save/

     init_run     :      1.93s CPU      1.96s WALL (       2 calls)
     electrons    :    228.47s CPU    232.00s WALL (       7 calls)
     update_pot   :      3.82s CPU      3.85s WALL (       5 calls)
     forces       :      4.30s CPU      4.38s WALL (       7 calls)
     stress       :      7.30s CPU      7.38s WALL (       7 calls)

     Called by init_run:
     wfcinit      :      0.76s CPU      0.77s WALL (       2 calls)
     potinit      :      0.44s CPU      0.47s WALL (       2 calls)
     hinit0       :      0.64s CPU      0.64s WALL (       2 calls)

     Called by electrons:
     c_bands      :    198.60s CPU    200.50s WALL (     270 calls)
     sum_band     :     12.03s CPU     12.23s WALL (     270 calls)
     v_of_rho     :     17.15s CPU     18.53s WALL (     275 calls)
     mix_rho      :      1.00s CPU      1.06s WALL (     270 calls)

     Called by c_bands:
     init_us_2    :      2.90s CPU      2.98s WALL (    2224 calls)
     cegterg      :    191.27s CPU    193.06s WALL (    1080 calls)

     Called by sum_band:

     Called by *egterg:
     h_psi        :    108.81s CPU    109.88s WALL (    4101 calls)
     g_psi        :      0.42s CPU      0.43s WALL (    3013 calls)
     cdiaghg      :     25.71s CPU     26.21s WALL (    4065 calls)

     Called by h_psi:
     h_psi:pot    :    108.00s CPU    109.07s WALL (    4101 calls)
     h_psi:calbec :     34.52s CPU     35.11s WALL (    4101 calls)
     vloc_psi     :     49.78s CPU     50.23s WALL (    4101 calls)
     add_vuspsi   :     23.67s CPU     23.70s WALL (    4101 calls)

     General routines
     calbec       :     36.27s CPU     36.88s WALL (    4241 calls)
     fft          :      9.87s CPU     11.08s WALL (   17683 calls)
     ffts         :      0.18s CPU      0.18s WALL (     270 calls)
     fftw         :     53.99s CPU     54.52s WALL (  368614 calls)

     Parallel routines
     fft_scatt_xy :      4.39s CPU      4.46s WALL (  386567 calls)
     fft_scatt_yz :     35.56s CPU     36.79s WALL (  386567 calls)

     PWSCF        :   4m 6.36s CPU   4m10.35s WALL


   This run was terminated on:  23:10:39  18May2024            

=------------------------------------------------------------------------------=
   JOB DONE.
=------------------------------------------------------------------------------=
