
     Program PWSCF v.6.4.1 starts on 19May2024 at  1:56:20 

     This program is part of the open-source Quantum ESPRESSO suite
     for quantum simulation of materials; please cite
         "P. Giannozzi et al., J. Phys.:Condens. Matter 21 395502 (2009);
         "P. Giannozzi et al., J. Phys.:Condens. Matter 29 465901 (2017);
          URL http://www.quantum-espresso.org", 
     in publications or presentations arising from this work. More details at
     http://www.quantum-espresso.org/quote

     Parallel version (MPI), running on    32 processors

     MPI processes distributed on     1 nodes
     R & G space division:  proc/nbgrp/npool/nimage =      32
     Reading input from v2o5.vc.in
Warning: card O       -0.000000000   0.048914545   0.643203052 ignored

     Current dimensions of program PWSCF are:
     Max number of different atomic species (ntypx) = 10
     Max number of k-points (npk) =  40000
     Max angular momentum in pseudopotentials (lmaxx) =  3

     IMPORTANT: XC functional enforced from input :
     Exchange-correlation      = VDW-DF ( 1  4  4  0 1 0)
     Any further DFT definition will be discarded
     Please, verify this is what you really want


     Subspace diagonalization in iterative solution of the eigenvalue problem:
     one sub-group per band group will be used
     ELPA distributed-memory algorithm (size of sub-group:  4*  4 procs)


     Parallelization info
     --------------------
     sticks:   dense  smooth     PW     G-vecs:    dense   smooth      PW
     Min          44      44     12                 3616     3616     510
     Max          45      45     13                 3631     3631     520
     Sum        1437    1437    387               115929   115929   16525



     bravais-lattice index     =            8
     lattice parameter (alat)  =       6.7676  a.u.
     unit-cell volume          =    1320.1235 (a.u.)^3
     number of atoms/cell      =           14
     number of atomic types    =            2
     number of electrons       =       112.00
     number of Kohn-Sham states=           56
     kinetic-energy cutoff     =      75.0000  Ry
     charge density cutoff     =     300.0000  Ry
     convergence threshold     =      1.0E-10
     mixing beta               =       0.7000
     number of iterations used =            8  plain     mixing
     Exchange-correlation      = VDW-DF ( 1  4  4  0 1 0)
     nstep                     =          500


     celldm(1)=   6.767583  celldm(2)=   1.308375  celldm(3)=   3.255230
     celldm(4)=   0.000000  celldm(5)=   0.000000  celldm(6)=   0.000000

     crystal axes: (cart. coord. in units of alat)
               a(1) = (   1.000000   0.000000   0.000000 )  
               a(2) = (   0.000000   1.308375   0.000000 )  
               a(3) = (   0.000000   0.000000   3.255230 )  

     reciprocal axes: (cart. coord. in units 2 pi/alat)
               b(1) = (  1.000000  0.000000  0.000000 )  
               b(2) = (  0.000000  0.764307  0.000000 )  
               b(3) = (  0.000000  0.000000  0.307198 )  


     PseudoPot. # 1 for V  read from file:
     /home/mpicuntureo/pseudos/v.nc.upf
     MD5 check sum: 40fb93c06b4f9d8c28c5ccd071294a04
     Pseudo is Norm-conserving + core correction, Zval = 13.0
     Generated using ONCVPSP code by D. R. Hamann
     Using radial grid of 1536 points,  6 beta functions with: 
                l(1) =   0
                l(2) =   0
                l(3) =   1
                l(4) =   1
                l(5) =   2
                l(6) =   2

     PseudoPot. # 2 for O  read from file:
     /home/mpicuntureo/pseudos/o.nc.upf
     MD5 check sum: 3e3f909f7470e8921608ab6b1f57bbae
     Pseudo is Norm-conserving + core correction, Zval =  6.0
     Generated using ONCVPSP code by D. R. Hamann
     Using radial grid of  936 points,  5 beta functions with: 
                l(1) =   0
                l(2) =   0
                l(3) =   1
                l(4) =   1
                l(5) =   2

     vdW kernel table read from file vdW_kernel_table
     MD5 check sum: 8c4337f4b28e1601c069d7ef7b6561bc

     atomic species   valence    mass     pseudopotential
        V             13.00    50.94150     V ( 1.00)
        O              6.00    15.99940     O ( 1.00)

      8 Sym. Ops., with inversion, found ( 4 have fractional translation)



   Cartesian axes

     site n.     atom                  positions (alat units)
         1           V   tau(   1) = (   0.0000000   0.5083212   2.1085108  )
         2           V   tau(   2) = (   0.5000000   0.8000533   2.7743339  )
         3           V   tau(   3) = (   0.5000000   0.8000533   0.4808959  )
         4           V   tau(   4) = (   0.0000000   0.5083212   1.1467190  )
         5           O   tau(   5) = (   0.5000000   0.6458297   2.2175314  )
         6           O   tau(   6) = (   0.0000000   0.6625449   2.6653133  )
         7           O   tau(   7) = (   0.0000000   0.6625449   0.5899165  )
         8           O   tau(   8) = (   0.5000000   0.6458297   1.0376984  )
         9           O   tau(   9) = (   0.0000000   0.0639985   1.1614561  )
        10           O   tau(  10) = (   0.5000000   1.2443760   0.4661588  )
        11           O   tau(  11) = (   0.5000000   1.2443760   2.7890710  )
        12           O   tau(  12) = (   0.5000000   0.6549630   0.0000000  )
        13           O   tau(  13) = (   0.0000000   0.6534115   1.6276149  )
        14           O   tau(  14) = (   0.0000000   0.0639985   2.0937737  )

     number of k points=     4
                       cart. coord. in units 2pi/alat
        k(    1) = (   0.0000000   0.0000000   0.0000000), wk =   0.2222222
        k(    2) = (   0.0000000   0.2547691   0.0000000), wk =   0.4444444
        k(    3) = (   0.3333333   0.0000000   0.0000000), wk =   0.4444444
        k(    4) = (   0.3333333   0.2547691   0.0000000), wk =   0.8888889

     Dense  grid:   115929 G-vectors     FFT dimensions: (  40,  50, 128)

     Estimated max dynamical RAM per process >      14.89 MB

     Estimated total dynamical RAM >     476.42 MB

     Check: negative core charge=   -0.000003

     Initial potential from superposition of free atoms

     starting charge  111.99579, renormalised to  112.00000


     %%%%%%%%%%%%%%%%%%%%%%%%%%%%%%%%%%%%%%%%%%%%%%%%%%%%%%%%%%%%%%%%%%%%%%%%
     %                                                                      %
     % You are using vdW-DF, which was implemented by the Thonhauser group. %
     % Please cite the following two papers that made this development      %
     % possible and the two reviews that describe the various versions:     %
     %                                                                      %
     %   T. Thonhauser et al., PRL 115, 136402 (2015).                      %
     %   T. Thonhauser et al., PRB 76, 125112 (2007).                       %
     %   K. Berland et al., Rep. Prog. Phys. 78, 066501 (2015).             %
     %   D.C. Langreth et al., J. Phys.: Condens. Matter 21, 084203 (2009). %
     %                                                                      %
     %                                                                      %
     % If you are calculating the stress with vdW-DF, please also cite:     %
     %                                                                      %
     %   R. Sabatini et al., J. Phys.: Condens. Matter 24, 424209 (2012).   %
     %                                                                      %
     %%%%%%%%%%%%%%%%%%%%%%%%%%%%%%%%%%%%%%%%%%%%%%%%%%%%%%%%%%%%%%%%%%%%%%%%


     Starting wfcs are   80 randomized atomic wfcs

     total cpu time spent up to now is        1.3 secs

     Self-consistent Calculation

     iteration #  1     ecut=    75.00 Ry     beta= 0.70
     Davidson diagonalization with overlap
     ethr =  1.00E-02,  avg # of iterations =  2.0

     total cpu time spent up to now is        2.0 secs

     total energy              =    -920.61734685 Ry
     Harris-Foulkes estimate   =    -927.67699807 Ry
     estimated scf accuracy    <       8.83224046 Ry

     iteration #  2     ecut=    75.00 Ry     beta= 0.70
     Davidson diagonalization with overlap
     ethr =  7.89E-03,  avg # of iterations =  6.2

     total cpu time spent up to now is        3.7 secs

     total energy              =    -911.04050252 Ry
     Harris-Foulkes estimate   =    -945.47202598 Ry
     estimated scf accuracy    <     153.52480411 Ry

     iteration #  3     ecut=    75.00 Ry     beta= 0.70
     Davidson diagonalization with overlap
     ethr =  7.89E-03,  avg # of iterations =  5.5

     total cpu time spent up to now is        5.4 secs

     total energy              =    -925.69506437 Ry
     Harris-Foulkes estimate   =    -926.65229095 Ry
     estimated scf accuracy    <       3.01633728 Ry

     iteration #  4     ecut=    75.00 Ry     beta= 0.70
     Davidson diagonalization with overlap
     ethr =  2.69E-03,  avg # of iterations =  4.0

     total cpu time spent up to now is        6.3 secs

     total energy              =    -925.95391758 Ry
     Harris-Foulkes estimate   =    -926.10329624 Ry
     estimated scf accuracy    <       0.87958479 Ry

     iteration #  5     ecut=    75.00 Ry     beta= 0.70
     Davidson diagonalization with overlap
     ethr =  7.85E-04,  avg # of iterations =  3.5

     total cpu time spent up to now is        7.1 secs

     total energy              =    -925.87377465 Ry
     Harris-Foulkes estimate   =    -926.01583962 Ry
     estimated scf accuracy    <       0.47561961 Ry

     iteration #  6     ecut=    75.00 Ry     beta= 0.70
     Davidson diagonalization with overlap
     ethr =  4.25E-04,  avg # of iterations =  4.0

     total cpu time spent up to now is        8.2 secs

     total energy              =    -926.02392415 Ry
     Harris-Foulkes estimate   =    -926.04366035 Ry
     estimated scf accuracy    <       0.26759855 Ry

     iteration #  7     ecut=    75.00 Ry     beta= 0.70
     Davidson diagonalization with overlap
     ethr =  2.39E-04,  avg # of iterations =  1.0

     total cpu time spent up to now is        8.8 secs

     total energy              =    -925.98569571 Ry
     Harris-Foulkes estimate   =    -926.02634519 Ry
     estimated scf accuracy    <       0.21425499 Ry

     iteration #  8     ecut=    75.00 Ry     beta= 0.70
     Davidson diagonalization with overlap
     ethr =  1.91E-04,  avg # of iterations =  3.5

     total cpu time spent up to now is        9.6 secs

     total energy              =    -926.00092324 Ry
     Harris-Foulkes estimate   =    -926.00646010 Ry
     estimated scf accuracy    <       0.02454078 Ry

     iteration #  9     ecut=    75.00 Ry     beta= 0.70
     Davidson diagonalization with overlap
     ethr =  2.19E-05,  avg # of iterations =  5.0

     total cpu time spent up to now is       10.8 secs

     total energy              =    -926.01102588 Ry
     Harris-Foulkes estimate   =    -926.01237533 Ry
     estimated scf accuracy    <       0.00815337 Ry

     iteration # 10     ecut=    75.00 Ry     beta= 0.70
     Davidson diagonalization with overlap
     ethr =  7.28E-06,  avg # of iterations =  3.0

     total cpu time spent up to now is       11.5 secs

     total energy              =    -926.01066747 Ry
     Harris-Foulkes estimate   =    -926.01132656 Ry
     estimated scf accuracy    <       0.00415884 Ry

     iteration # 11     ecut=    75.00 Ry     beta= 0.70
     Davidson diagonalization with overlap
     ethr =  3.71E-06,  avg # of iterations =  4.0

     total cpu time spent up to now is       12.4 secs

     total energy              =    -926.01124777 Ry
     Harris-Foulkes estimate   =    -926.01125854 Ry
     estimated scf accuracy    <       0.00006010 Ry

     iteration # 12     ecut=    75.00 Ry     beta= 0.70
     Davidson diagonalization with overlap
     ethr =  5.37E-08,  avg # of iterations =  5.2

     total cpu time spent up to now is       13.8 secs

     total energy              =    -926.01134104 Ry
     Harris-Foulkes estimate   =    -926.01135271 Ry
     estimated scf accuracy    <       0.00003836 Ry

     iteration # 13     ecut=    75.00 Ry     beta= 0.70
     Davidson diagonalization with overlap
     ethr =  3.43E-08,  avg # of iterations =  5.0

     total cpu time spent up to now is       14.8 secs

     total energy              =    -926.01134493 Ry
     Harris-Foulkes estimate   =    -926.01134818 Ry
     estimated scf accuracy    <       0.00000981 Ry

     iteration # 14     ecut=    75.00 Ry     beta= 0.70
     Davidson diagonalization with overlap
     ethr =  8.76E-09,  avg # of iterations =  5.0

     total cpu time spent up to now is       15.8 secs

     total energy              =    -926.01134602 Ry
     Harris-Foulkes estimate   =    -926.01134714 Ry
     estimated scf accuracy    <       0.00000588 Ry

     iteration # 15     ecut=    75.00 Ry     beta= 0.70
     Davidson diagonalization with overlap
     ethr =  5.25E-09,  avg # of iterations =  4.2

     total cpu time spent up to now is       16.5 secs

     total energy              =    -926.01134599 Ry
     Harris-Foulkes estimate   =    -926.01134635 Ry
     estimated scf accuracy    <       0.00000213 Ry

     iteration # 16     ecut=    75.00 Ry     beta= 0.70
     Davidson diagonalization with overlap
     ethr =  1.90E-09,  avg # of iterations =  4.0

     total cpu time spent up to now is       17.5 secs

     total energy              =    -926.01134649 Ry
     Harris-Foulkes estimate   =    -926.01134650 Ry
     estimated scf accuracy    <       0.00000009 Ry

     iteration # 17     ecut=    75.00 Ry     beta= 0.70
     Davidson diagonalization with overlap
     ethr =  8.11E-11,  avg # of iterations =  5.2

     total cpu time spent up to now is       18.5 secs

     total energy              =    -926.01134650 Ry
     Harris-Foulkes estimate   =    -926.01134652 Ry
     estimated scf accuracy    <       0.00000012 Ry

     iteration # 18     ecut=    75.00 Ry     beta= 0.70
     Davidson diagonalization with overlap
     ethr =  8.11E-11,  avg # of iterations =  4.0

     total cpu time spent up to now is       19.3 secs

     total energy              =    -926.01134650 Ry
     Harris-Foulkes estimate   =    -926.01134651 Ry
     estimated scf accuracy    <       0.00000003 Ry

     iteration # 19     ecut=    75.00 Ry     beta= 0.70
     Davidson diagonalization with overlap
     ethr =  2.30E-11,  avg # of iterations =  4.8

     total cpu time spent up to now is       20.5 secs

     total energy              =    -926.01134651 Ry
     Harris-Foulkes estimate   =    -926.01134651 Ry
     estimated scf accuracy    <       0.00000003 Ry

     iteration # 20     ecut=    75.00 Ry     beta= 0.70
     Davidson diagonalization with overlap
     ethr =  2.30E-11,  avg # of iterations =  1.0

     total cpu time spent up to now is       21.1 secs

     total energy              =    -926.01134651 Ry
     Harris-Foulkes estimate   =    -926.01134651 Ry
     estimated scf accuracy    <       0.00000002 Ry

     iteration # 21     ecut=    75.00 Ry     beta= 0.70
     Davidson diagonalization with overlap
     ethr =  2.18E-11,  avg # of iterations =  1.0

     total cpu time spent up to now is       21.7 secs

     total energy              =    -926.01134651 Ry
     Harris-Foulkes estimate   =    -926.01134651 Ry
     estimated scf accuracy    <       0.00000002 Ry

     iteration # 22     ecut=    75.00 Ry     beta= 0.70
     Davidson diagonalization with overlap
     ethr =  1.87E-11,  avg # of iterations =  1.0

     total cpu time spent up to now is       22.3 secs

     total energy              =    -926.01134651 Ry
     Harris-Foulkes estimate   =    -926.01134651 Ry
     estimated scf accuracy    <       0.00000002 Ry

     iteration # 23     ecut=    75.00 Ry     beta= 0.70
     Davidson diagonalization with overlap
     ethr =  1.62E-11,  avg # of iterations =  1.0

     total cpu time spent up to now is       22.9 secs

     total energy              =    -926.01134651 Ry
     Harris-Foulkes estimate   =    -926.01134651 Ry
     estimated scf accuracy    <       0.00000001 Ry

     iteration # 24     ecut=    75.00 Ry     beta= 0.70
     Davidson diagonalization with overlap
     ethr =  9.45E-12,  avg # of iterations =  4.2

     total cpu time spent up to now is       23.8 secs

     total energy              =    -926.01134651 Ry
     Harris-Foulkes estimate   =    -926.01134651 Ry
     estimated scf accuracy    <          2.0E-09 Ry

     iteration # 25     ecut=    75.00 Ry     beta= 0.70
     Davidson diagonalization with overlap
     ethr =  1.82E-12,  avg # of iterations =  5.0

     total cpu time spent up to now is       25.1 secs

     total energy              =    -926.01134651 Ry
     Harris-Foulkes estimate   =    -926.01134651 Ry
     estimated scf accuracy    <          5.2E-09 Ry

     iteration # 26     ecut=    75.00 Ry     beta= 0.70
     Davidson diagonalization with overlap
     ethr =  1.82E-12,  avg # of iterations =  4.0

     total cpu time spent up to now is       26.2 secs

     total energy              =    -926.01134651 Ry
     Harris-Foulkes estimate   =    -926.01134651 Ry
     estimated scf accuracy    <          1.7E-10 Ry

     iteration # 27     ecut=    75.00 Ry     beta= 0.70
     Davidson diagonalization with overlap
     ethr =  1.52E-13,  avg # of iterations =  5.0

     total cpu time spent up to now is       27.5 secs

     total energy              =    -926.01134651 Ry
     Harris-Foulkes estimate   =    -926.01134651 Ry
     estimated scf accuracy    <          5.0E-10 Ry

     iteration # 28     ecut=    75.00 Ry     beta= 0.70
     Davidson diagonalization with overlap
     ethr =  1.52E-13,  avg # of iterations =  4.0

     total cpu time spent up to now is       28.6 secs

     End of self-consistent calculation

          k = 0.0000 0.0000 0.0000 ( 14499 PWs)   bands (ev):

   -61.0237 -61.0220 -61.0148 -61.0131 -35.0010 -34.9988 -34.9914 -34.9869
   -34.9188 -34.8718 -34.8537 -34.8239 -34.8218 -34.8086 -34.7949 -34.7927
   -14.2369 -14.1233 -13.2506 -13.1075 -13.0384 -13.0314 -12.6824 -12.6769
   -12.5464 -12.5404  -1.0890  -1.0784  -1.0081  -0.9014  -0.8014  -0.3990
     0.2550   0.3448   0.5283   0.6096   0.7455   0.7883   0.8998   0.9437
     1.0052   1.0344   1.2999   1.3355   1.4347   1.4870   1.5933   1.6081
     1.8030   2.0383   2.1718   2.2000   2.3141   2.4933   2.4951   2.5855

          k = 0.0000 0.2548 0.0000 ( 14508 PWs)   bands (ev):

   -61.0237 -61.0220 -61.0148 -61.0130 -35.0017 -34.9995 -34.9929 -34.9883
   -34.9186 -34.8716 -34.8537 -34.8239 -34.8217 -34.8086 -34.7949 -34.7927
   -14.1900 -14.0843 -13.2068 -13.0902 -13.0371 -13.0162 -12.6982 -12.6735
   -12.5494 -12.5203  -1.1181  -1.1071  -1.0323  -0.9332  -0.9044  -0.5576
    -0.4189  -0.1840  -0.1430  -0.0084   0.4389   0.5652   0.6223   0.9866
     1.0912   1.3018   1.4569   1.4738   1.6122   1.6824   1.8082   1.9026
     2.1645   2.1727   2.1818   2.3508   2.4012   2.5963   2.6709   2.7524

          k = 0.3333 0.0000 0.0000 ( 14440 PWs)   bands (ev):

   -61.0201 -61.0183 -61.0156 -61.0139 -34.9956 -34.9935 -34.9898 -34.9863
   -34.9155 -34.8924 -34.8790 -34.8708 -34.8333 -34.8273 -34.8144 -34.8066
   -13.7114 -13.5838 -13.1603 -13.0025 -12.9980 -12.9897 -12.6250 -12.6248
   -12.5890 -12.5645  -1.5527  -1.4815  -0.8061  -0.7495  -0.7107  -0.3385
    -0.2459   0.1117   0.1311   0.4160   0.4291   0.4775   0.8002   0.9167
     0.9617   0.9953   1.0125   1.0994   1.2543   1.2637   1.4477   1.4904
     1.5481   1.9351   2.2320   2.3033   2.4262   2.5805   2.7698   2.7935

          k = 0.3333 0.2548 0.0000 ( 14486 PWs)   bands (ev):

   -61.0201 -61.0184 -61.0156 -61.0139 -34.9964 -34.9943 -34.9910 -34.9876
   -34.9153 -34.8923 -34.8789 -34.8707 -34.8333 -34.8273 -34.8144 -34.8067
   -13.6703 -13.5547 -13.1290 -13.0006 -12.9892 -12.9766 -12.6343 -12.6147
   -12.5599 -12.5375  -1.5512  -1.4789  -0.8437  -0.8044  -0.7819  -0.4435
    -0.3912  -0.2772  -0.1762  -0.0081   0.0595   0.2041   0.5523   0.5969
     0.6604   0.7423   0.8310   0.9290   1.0041   1.4481   1.6864   1.8548
     2.0715   2.1393   2.4509   2.6729   2.6824   2.8176   2.9020   2.9188

     highest occupied level (ev):     2.9188

!    total energy              =    -926.01134651 Ry
     Harris-Foulkes estimate   =    -926.01134651 Ry
     estimated scf accuracy    <          2.2E-11 Ry

     The total energy is the sum of the following terms:

     one-electron contribution =    -627.17465061 Ry
     hartree contribution      =     350.37604162 Ry
     xc contribution           =    -178.13602692 Ry
     ewald contribution        =    -471.07671060 Ry

     convergence has been achieved in  28 iterations

     Forces acting on atoms (cartesian axes, Ry/au):

     atom    1 type  1   force =    -0.00000000    0.00024350   -0.00017311
     atom    2 type  1   force =     0.00000000   -0.00024350    0.00017311
     atom    3 type  1   force =     0.00000000   -0.00024350   -0.00017311
     atom    4 type  1   force =    -0.00000000    0.00024350    0.00017311
     atom    5 type  2   force =     0.00000000    0.00019566    0.00003610
     atom    6 type  2   force =     0.00000000   -0.00019566   -0.00003610
     atom    7 type  2   force =     0.00000000   -0.00019566    0.00003610
     atom    8 type  2   force =    -0.00000000    0.00019566   -0.00003610
     atom    9 type  2   force =     0.00000000   -0.00002526    0.00017136
     atom   10 type  2   force =     0.00000000    0.00002526   -0.00017136
     atom   11 type  2   force =     0.00000000    0.00002526    0.00017136
     atom   12 type  2   force =     0.00000000   -0.00018536    0.00000000
     atom   13 type  2   force =     0.00000000    0.00018536    0.00000000
     atom   14 type  2   force =     0.00000000   -0.00002526   -0.00017136

     Total force =     0.000839     Total SCF correction =     0.000016


     Computing stress (Cartesian axis) and pressure

          total   stress  (Ry/bohr**3)                   (kbar)     P=   -4.79
  -0.00003388   0.00000000   0.00000000         -4.98      0.00      0.00
   0.00000000  -0.00003219   0.00000000          0.00     -4.74      0.00
   0.00000000   0.00000000  -0.00003160          0.00      0.00     -4.65


     BFGS Geometry Optimization

     number of scf cycles    =   1
     number of bfgs steps    =   0

     enthalpy new            =    -926.0113465078 Ry

     new trust radius        =       0.0061543107 bohr
     new conv_thr            =            1.0E-10 Ry

     new unit-cell volume =   1316.90291 a.u.^3 (   195.14488 Ang^3 )
     density =      3.09533 g/cm^3

CELL_PARAMETERS (alat=  6.76758343)
   0.999153080   0.000000000   0.000000000
   0.000000000   1.307321527   0.000000000
   0.000000000   0.000000000   3.252658425

ATOMIC_POSITIONS (crystal)
V       -0.000000000   0.388541051   0.647722383
V        0.500000007   0.611458962   0.852277638
V        0.500000007   0.611458962   0.147722376
V       -0.000000000   0.388541051   0.352277631
O        0.500000007   0.493634336   0.681222800
O        0.000000000   0.506365678   0.818777222
O        0.000000000   0.506365678   0.181222792
O        0.500000007   0.493634336   0.318777215
O        0.000000000   0.048911692   0.356804740
O        0.500000007   0.951088322   0.143195267
O        0.500000007   0.951088322   0.856804747
O        0.500000007   0.500572006   0.000000000
O        0.000000000   0.499428007   0.500000007
O        0.000000000   0.048911692   0.643195274



     Writing output data file v2o5.save/
     NEW-OLD atomic charge density approx. for the potential

     Check: negative core charge=   -0.000003
     extrapolated charge  111.72610, renormalised to  112.00000

     total cpu time spent up to now is       30.8 secs

     Self-consistent Calculation

     iteration #  1     ecut=    75.00 Ry     beta= 0.70
     Davidson diagonalization with overlap
     ethr =  1.00E-06,  avg # of iterations =  8.5

     total cpu time spent up to now is       32.6 secs

     total energy              =    -925.98619299 Ry
     Harris-Foulkes estimate   =    -927.27131031 Ry
     estimated scf accuracy    <       0.02487384 Ry

     iteration #  2     ecut=    75.00 Ry     beta= 0.70
     Davidson diagonalization with overlap
     ethr =  2.22E-05,  avg # of iterations =  5.0

     total cpu time spent up to now is       34.1 secs

     total energy              =    -925.96995307 Ry
     Harris-Foulkes estimate   =    -926.09122977 Ry
     estimated scf accuracy    <       0.59091012 Ry

     iteration #  3     ecut=    75.00 Ry     beta= 0.70
     Davidson diagonalization with overlap
     ethr =  2.22E-05,  avg # of iterations =  5.0

     total cpu time spent up to now is       35.7 secs

     total energy              =    -926.01200850 Ry
     Harris-Foulkes estimate   =    -926.01418911 Ry
     estimated scf accuracy    <       0.01699153 Ry

     iteration #  4     ecut=    75.00 Ry     beta= 0.70
     Davidson diagonalization with overlap
     ethr =  1.52E-05,  avg # of iterations =  1.0

     total cpu time spent up to now is       36.3 secs

     total energy              =    -926.01064658 Ry
     Harris-Foulkes estimate   =    -926.01223088 Ry
     estimated scf accuracy    <       0.01244520 Ry

     iteration #  5     ecut=    75.00 Ry     beta= 0.70
     Davidson diagonalization with overlap
     ethr =  1.11E-05,  avg # of iterations =  2.2

     total cpu time spent up to now is       37.0 secs

     total energy              =    -926.01133143 Ry
     Harris-Foulkes estimate   =    -926.01105972 Ry
     estimated scf accuracy    <       0.00509453 Ry

     iteration #  6     ecut=    75.00 Ry     beta= 0.70
     Davidson diagonalization with overlap
     ethr =  4.55E-06,  avg # of iterations =  2.5

     total cpu time spent up to now is       37.6 secs

     total energy              =    -926.01157385 Ry
     Harris-Foulkes estimate   =    -926.01151212 Ry
     estimated scf accuracy    <       0.00531023 Ry

     iteration #  7     ecut=    75.00 Ry     beta= 0.70
     Davidson diagonalization with overlap
     ethr =  4.55E-06,  avg # of iterations =  1.0

     total cpu time spent up to now is       38.2 secs

     total energy              =    -926.01159896 Ry
     Harris-Foulkes estimate   =    -926.01161053 Ry
     estimated scf accuracy    <       0.00494151 Ry

     iteration #  8     ecut=    75.00 Ry     beta= 0.70
     Davidson diagonalization with overlap
     ethr =  4.41E-06,  avg # of iterations =  1.0

     total cpu time spent up to now is       38.8 secs

     total energy              =    -926.01154159 Ry
     Harris-Foulkes estimate   =    -926.01162413 Ry
     estimated scf accuracy    <       0.00460619 Ry

     iteration #  9     ecut=    75.00 Ry     beta= 0.70
     Davidson diagonalization with overlap
     ethr =  4.11E-06,  avg # of iterations =  1.0

     total cpu time spent up to now is       39.4 secs

     total energy              =    -926.01137964 Ry
     Harris-Foulkes estimate   =    -926.01156566 Ry
     estimated scf accuracy    <       0.00407135 Ry

     iteration # 10     ecut=    75.00 Ry     beta= 0.70
     Davidson diagonalization with overlap
     ethr =  3.64E-06,  avg # of iterations =  1.0

     total cpu time spent up to now is       40.0 secs

     total energy              =    -926.01076867 Ry
     Harris-Foulkes estimate   =    -926.01141365 Ry
     estimated scf accuracy    <       0.00332007 Ry

     iteration # 11     ecut=    75.00 Ry     beta= 0.70
     Davidson diagonalization with overlap
     ethr =  2.96E-06,  avg # of iterations =  4.0

     total cpu time spent up to now is       41.0 secs

     total energy              =    -926.01141754 Ry
     Harris-Foulkes estimate   =    -926.01144686 Ry
     estimated scf accuracy    <       0.00051935 Ry

     iteration # 12     ecut=    75.00 Ry     beta= 0.70
     Davidson diagonalization with overlap
     ethr =  4.64E-07,  avg # of iterations =  3.5

     total cpu time spent up to now is       41.7 secs

     total energy              =    -926.01148860 Ry
     Harris-Foulkes estimate   =    -926.01144031 Ry
     estimated scf accuracy    <       0.00043284 Ry

     iteration # 13     ecut=    75.00 Ry     beta= 0.70
     Davidson diagonalization with overlap
     ethr =  3.86E-07,  avg # of iterations =  1.5

     total cpu time spent up to now is       42.4 secs

     total energy              =    -926.01146117 Ry
     Harris-Foulkes estimate   =    -926.01149423 Ry
     estimated scf accuracy    <       0.00054530 Ry

     iteration # 14     ecut=    75.00 Ry     beta= 0.70
     Davidson diagonalization with overlap
     ethr =  3.86E-07,  avg # of iterations =  5.0

     total cpu time spent up to now is       43.9 secs

     total energy              =    -926.01125089 Ry
     Harris-Foulkes estimate   =    -926.01198208 Ry
     estimated scf accuracy    <       0.00439784 Ry

     iteration # 15     ecut=    75.00 Ry     beta= 0.70
     Davidson diagonalization with overlap
     ethr =  3.86E-07,  avg # of iterations =  5.0

     total cpu time spent up to now is       45.3 secs

     total energy              =    -926.01142579 Ry
     Harris-Foulkes estimate   =    -926.01147887 Ry
     estimated scf accuracy    <       0.00061053 Ry

     iteration # 16     ecut=    75.00 Ry     beta= 0.70
     Davidson diagonalization with overlap
     ethr =  3.86E-07,  avg # of iterations =  1.0

     total cpu time spent up to now is       45.9 secs

     total energy              =    -926.01144003 Ry
     Harris-Foulkes estimate   =    -926.01143099 Ry
     estimated scf accuracy    <       0.00046206 Ry

     iteration # 17     ecut=    75.00 Ry     beta= 0.70
     Davidson diagonalization with overlap
     ethr =  3.86E-07,  avg # of iterations =  1.0

     total cpu time spent up to now is       46.5 secs

     total energy              =    -926.01143875 Ry
     Harris-Foulkes estimate   =    -926.01144176 Ry
     estimated scf accuracy    <       0.00046427 Ry

     iteration # 18     ecut=    75.00 Ry     beta= 0.70
     Davidson diagonalization with overlap
     ethr =  3.86E-07,  avg # of iterations =  1.0

     total cpu time spent up to now is       47.2 secs

     total energy              =    -926.01139122 Ry
     Harris-Foulkes estimate   =    -926.01144031 Ry
     estimated scf accuracy    <       0.00042944 Ry

     iteration # 19     ecut=    75.00 Ry     beta= 0.70
     Davidson diagonalization with overlap
     ethr =  3.83E-07,  avg # of iterations =  1.0

     total cpu time spent up to now is       47.8 secs

     total energy              =    -926.01143802 Ry
     Harris-Foulkes estimate   =    -926.01140161 Ry
     estimated scf accuracy    <       0.00024944 Ry

     iteration # 20     ecut=    75.00 Ry     beta= 0.70
     Davidson diagonalization with overlap
     ethr =  2.23E-07,  avg # of iterations =  4.0

     total cpu time spent up to now is       48.9 secs

     total energy              =    -926.01131932 Ry
     Harris-Foulkes estimate   =    -926.01151699 Ry
     estimated scf accuracy    <       0.00060129 Ry

     iteration # 21     ecut=    75.00 Ry     beta= 0.70
     Davidson diagonalization with overlap
     ethr =  2.23E-07,  avg # of iterations =  5.0

     total cpu time spent up to now is       50.2 secs

     total energy              =    -926.01139835 Ry
     Harris-Foulkes estimate   =    -926.01142005 Ry
     estimated scf accuracy    <       0.00007890 Ry

     iteration # 22     ecut=    75.00 Ry     beta= 0.70
     Davidson diagonalization with overlap
     ethr =  7.04E-08,  avg # of iterations =  4.0

     total cpu time spent up to now is       51.1 secs

     total energy              =    -926.01140980 Ry
     Harris-Foulkes estimate   =    -926.01140959 Ry
     estimated scf accuracy    <       0.00000379 Ry

     iteration # 23     ecut=    75.00 Ry     beta= 0.70
     Davidson diagonalization with overlap
     ethr =  3.38E-09,  avg # of iterations =  5.0

     total cpu time spent up to now is       52.5 secs

     total energy              =    -926.01141345 Ry
     Harris-Foulkes estimate   =    -926.01141523 Ry
     estimated scf accuracy    <       0.00004185 Ry

     iteration # 24     ecut=    75.00 Ry     beta= 0.70
     Davidson diagonalization with overlap
     ethr =  3.38E-09,  avg # of iterations =  1.0

     total cpu time spent up to now is       53.1 secs

     total energy              =    -926.01141086 Ry
     Harris-Foulkes estimate   =    -926.01141352 Ry
     estimated scf accuracy    <       0.00003682 Ry

     iteration # 25     ecut=    75.00 Ry     beta= 0.70
     Davidson diagonalization with overlap
     ethr =  3.38E-09,  avg # of iterations =  3.8

     total cpu time spent up to now is       54.1 secs

     total energy              =    -926.01141084 Ry
     Harris-Foulkes estimate   =    -926.01141169 Ry
     estimated scf accuracy    <       0.00001283 Ry

     iteration # 26     ecut=    75.00 Ry     beta= 0.70
     Davidson diagonalization with overlap
     ethr =  3.38E-09,  avg # of iterations =  1.0

     total cpu time spent up to now is       54.8 secs

     total energy              =    -926.01140942 Ry
     Harris-Foulkes estimate   =    -926.01141090 Ry
     estimated scf accuracy    <       0.00001057 Ry

     iteration # 27     ecut=    75.00 Ry     beta= 0.70
     Davidson diagonalization with overlap
     ethr =  3.38E-09,  avg # of iterations =  4.2

     total cpu time spent up to now is       55.8 secs

     total energy              =    -926.01141022 Ry
     Harris-Foulkes estimate   =    -926.01141028 Ry
     estimated scf accuracy    <       0.00000029 Ry

     iteration # 28     ecut=    75.00 Ry     beta= 0.70
     Davidson diagonalization with overlap
     ethr =  2.57E-10,  avg # of iterations =  4.0

     total cpu time spent up to now is       56.6 secs

     total energy              =    -926.01141022 Ry
     Harris-Foulkes estimate   =    -926.01141024 Ry
     estimated scf accuracy    <       0.00000009 Ry

     iteration # 29     ecut=    75.00 Ry     beta= 0.70
     Davidson diagonalization with overlap
     ethr =  8.08E-11,  avg # of iterations =  4.5

     total cpu time spent up to now is       57.9 secs

     total energy              =    -926.01141026 Ry
     Harris-Foulkes estimate   =    -926.01141028 Ry
     estimated scf accuracy    <       0.00000016 Ry

     iteration # 30     ecut=    75.00 Ry     beta= 0.70
     Davidson diagonalization with overlap
     ethr =  8.08E-11,  avg # of iterations =  1.0

     total cpu time spent up to now is       58.5 secs

     total energy              =    -926.01141024 Ry
     Harris-Foulkes estimate   =    -926.01141026 Ry
     estimated scf accuracy    <       0.00000010 Ry

     iteration # 31     ecut=    75.00 Ry     beta= 0.70
     Davidson diagonalization with overlap
     ethr =  8.08E-11,  avg # of iterations =  4.2

     total cpu time spent up to now is       59.4 secs

     total energy              =    -926.01141026 Ry
     Harris-Foulkes estimate   =    -926.01141026 Ry
     estimated scf accuracy    <          6.8E-09 Ry

     iteration # 32     ecut=    75.00 Ry     beta= 0.70
     Davidson diagonalization with overlap
     ethr =  6.11E-12,  avg # of iterations =  5.0

     total cpu time spent up to now is       60.7 secs

     total energy              =    -926.01141026 Ry
     Harris-Foulkes estimate   =    -926.01141026 Ry
     estimated scf accuracy    <          5.0E-09 Ry

     iteration # 33     ecut=    75.00 Ry     beta= 0.70
     Davidson diagonalization with overlap
     ethr =  4.49E-12,  avg # of iterations =  4.0

     total cpu time spent up to now is       61.4 secs

     total energy              =    -926.01141026 Ry
     Harris-Foulkes estimate   =    -926.01141026 Ry
     estimated scf accuracy    <          5.5E-09 Ry

     iteration # 34     ecut=    75.00 Ry     beta= 0.70
     Davidson diagonalization with overlap
     ethr =  4.49E-12,  avg # of iterations =  1.0

     total cpu time spent up to now is       62.0 secs

     total energy              =    -926.01141026 Ry
     Harris-Foulkes estimate   =    -926.01141026 Ry
     estimated scf accuracy    <          4.5E-09 Ry

     iteration # 35     ecut=    75.00 Ry     beta= 0.70
     Davidson diagonalization with overlap
     ethr =  4.01E-12,  avg # of iterations =  1.0

     total cpu time spent up to now is       62.6 secs

     total energy              =    -926.01141026 Ry
     Harris-Foulkes estimate   =    -926.01141026 Ry
     estimated scf accuracy    <          3.2E-09 Ry

     iteration # 36     ecut=    75.00 Ry     beta= 0.70
     Davidson diagonalization with overlap
     ethr =  2.89E-12,  avg # of iterations =  3.5

     total cpu time spent up to now is       63.4 secs

     total energy              =    -926.01141026 Ry
     Harris-Foulkes estimate   =    -926.01141026 Ry
     estimated scf accuracy    <          1.8E-09 Ry

     iteration # 37     ecut=    75.00 Ry     beta= 0.70
     Davidson diagonalization with overlap
     ethr =  1.65E-12,  avg # of iterations =  4.2

     total cpu time spent up to now is       64.2 secs

     total energy              =    -926.01141026 Ry
     Harris-Foulkes estimate   =    -926.01141026 Ry
     estimated scf accuracy    <          5.7E-10 Ry

     iteration # 38     ecut=    75.00 Ry     beta= 0.70
     Davidson diagonalization with overlap
     ethr =  5.08E-13,  avg # of iterations =  4.0

     total cpu time spent up to now is       65.1 secs

     total energy              =    -926.01141026 Ry
     Harris-Foulkes estimate   =    -926.01141026 Ry
     estimated scf accuracy    <          1.3E-10 Ry

     iteration # 39     ecut=    75.00 Ry     beta= 0.70
     Davidson diagonalization with overlap
     ethr =  1.16E-13,  avg # of iterations =  3.2

     total cpu time spent up to now is       65.9 secs

     End of self-consistent calculation

          k = 0.0000 0.0000 0.0000 ( 14499 PWs)   bands (ev):

   -60.9920 -60.9903 -60.9829 -60.9812 -34.9725 -34.9702 -34.9628 -34.9582
   -34.8888 -34.8412 -34.8229 -34.7928 -34.7907 -34.7773 -34.7635 -34.7613
   -14.2209 -14.1068 -13.2297 -13.0879 -13.0188 -13.0096 -12.6573 -12.6516
   -12.5204 -12.5145  -1.0727  -1.0620  -0.9927  -0.8872  -0.7829  -0.3803
     0.2723   0.3628   0.5464   0.6278   0.7662   0.8091   0.9247   0.9682
     1.0302   1.0601   1.3201   1.3581   1.4542   1.5098   1.6156   1.6323
     1.8241   2.0614   2.1977   2.2260   2.3364   2.5167   2.5180   2.6104

          k = 0.0000 0.2550 0.0000 ( 14508 PWs)   bands (ev):

   -60.9920 -60.9903 -60.9830 -60.9812 -34.9732 -34.9709 -34.9644 -34.9597
   -34.8886 -34.8410 -34.8229 -34.7928 -34.7906 -34.7773 -34.7635 -34.7613
   -14.1738 -14.0676 -13.1858 -13.0706 -13.0175 -12.9944 -12.6730 -12.6480
   -12.5233 -12.4938  -1.1020  -1.0908  -1.0170  -0.9192  -0.8877  -0.5421
    -0.4001  -0.1651  -0.1253   0.0082   0.4612   0.5850   0.6423   1.0093
     1.1133   1.3214   1.4764   1.4986   1.6369   1.7059   1.8320   1.9276
     2.1907   2.1987   2.2054   2.3739   2.4242   2.6203   2.6957   2.7772

          k = 0.3336 0.0000 0.0000 ( 14440 PWs)   bands (ev):

   -60.9883 -60.9865 -60.9838 -60.9820 -34.9670 -34.9649 -34.9612 -34.9577
   -34.8854 -34.8620 -34.8486 -34.8402 -34.8024 -34.7963 -34.7832 -34.7754
   -13.6929 -13.5646 -13.1392 -12.9814 -12.9765 -12.9675 -12.5994 -12.5993
   -12.5629 -12.5387  -1.5378  -1.4657  -0.7886  -0.7344  -0.6920  -0.3199
    -0.2282   0.1302   0.1471   0.4336   0.4476   0.4957   0.8205   0.9383
     0.9831   1.0193   1.0365   1.1257   1.2810   1.2851   1.4692   1.5118
     1.5715   1.9579   2.2545   2.3283   2.4488   2.6039   2.7931   2.8178

          k = 0.3336 0.2550 0.0000 ( 14486 PWs)   bands (ev):

   -60.9883 -60.9866 -60.9838 -60.9820 -34.9678 -34.9657 -34.9624 -34.9589
   -34.8853 -34.8619 -34.8484 -34.8401 -34.8023 -34.7963 -34.7832 -34.7754
   -13.6516 -13.5354 -13.1081 -12.9795 -12.9675 -12.9544 -12.6086 -12.5886
   -12.5337 -12.5110  -1.5362  -1.4630  -0.8267  -0.7896  -0.7643  -0.4279
    -0.3730  -0.2607  -0.1587   0.0094   0.0782   0.2234   0.5757   0.6159
     0.6813   0.7637   0.8535   0.9501   1.0267   1.4708   1.7078   1.8791
     2.0958   2.1642   2.4750   2.6967   2.7070   2.8421   2.9270   2.9430

     highest occupied level (ev):     2.9430

!    total energy              =    -926.01141026 Ry
     Harris-Foulkes estimate   =    -926.01141026 Ry
     estimated scf accuracy    <          6.9E-11 Ry

     The total energy is the sum of the following terms:

     one-electron contribution =    -626.56540622 Ry
     hartree contribution      =     350.18353031 Ry
     xc contribution           =    -178.15653496 Ry
     ewald contribution        =    -471.47299939 Ry

     convergence has been achieved in  39 iterations

     Forces acting on atoms (cartesian axes, Ry/au):

     atom    1 type  1   force =    -0.00000000    0.00147645    0.00032337
     atom    2 type  1   force =     0.00000000   -0.00147645   -0.00032337
     atom    3 type  1   force =     0.00000000   -0.00147645    0.00032337
     atom    4 type  1   force =     0.00000000    0.00147645   -0.00032337
     atom    5 type  2   force =    -0.00000000    0.00052696   -0.00024215
     atom    6 type  2   force =     0.00000000   -0.00052696    0.00024215
     atom    7 type  2   force =     0.00000000   -0.00052696   -0.00024215
     atom    8 type  2   force =    -0.00000000    0.00052696    0.00024215
     atom    9 type  2   force =    -0.00000000   -0.00235761    0.00027142
     atom   10 type  2   force =    -0.00000000    0.00235761   -0.00027142
     atom   11 type  2   force =     0.00000000    0.00235761    0.00027142
     atom   12 type  2   force =     0.00000000   -0.00098579    0.00000000
     atom   13 type  2   force =     0.00000000    0.00098579    0.00000000
     atom   14 type  2   force =     0.00000000   -0.00235761   -0.00027142

     Total force =     0.005912     Total SCF correction =     0.000032


     Computing stress (Cartesian axis) and pressure

          total   stress  (Ry/bohr**3)                   (kbar)     P=   -0.87
  -0.00000849   0.00000000   0.00000000         -1.25      0.00      0.00
   0.00000000  -0.00000442   0.00000000          0.00     -0.65      0.00
   0.00000000   0.00000000  -0.00000490          0.00      0.00     -0.72


     number of scf cycles    =   2
     number of bfgs steps    =   1

     enthalpy old            =    -926.0113465078 Ry
     enthalpy new            =    -926.0114102585 Ry

     CASE: enthalpy_new < enthalpy_old

     new trust radius        =       0.0050879257 bohr
     new conv_thr            =            1.0E-12 Ry

     new unit-cell volume =   1314.51877 a.u.^3 (   194.79158 Ang^3 )
     density =      3.10094 g/cm^3

CELL_PARAMETERS (alat=  6.76758343)
   0.998452649   0.000000000   0.000000000
   0.000000000   1.306600441   0.000000000
   0.000000000   0.000000000   3.250840494

ATOMIC_POSITIONS (crystal)
V       -0.000000000   0.388764634   0.647736798
V        0.500000007   0.611235379   0.852263223
V        0.500000007   0.611235379   0.147736791
V        0.000000000   0.388764634   0.352263216
O        0.500000007   0.493720430   0.681209830
O        0.000000000   0.506279584   0.818790192
O        0.000000000   0.506279584   0.181209822
O        0.500000007   0.493720430   0.318790185
O       -0.000000000   0.048575713   0.356824205
O        0.500000007   0.951424301   0.143175802
O        0.500000007   0.951424301   0.856824212
O        0.500000007   0.500421405   0.000000000
O        0.000000000   0.499578608   0.500000007
O        0.000000000   0.048575713   0.643175809



     Writing output data file v2o5.save/
     NEW-OLD atomic charge density approx. for the potential

     Check: negative core charge=   -0.000003
     extrapolated charge  111.79687, renormalised to  112.00000

     total cpu time spent up to now is       68.2 secs

     Self-consistent Calculation

     iteration #  1     ecut=    75.00 Ry     beta= 0.70
     Davidson diagonalization with overlap
     ethr =  1.00E-06,  avg # of iterations =  6.5

     total cpu time spent up to now is       69.9 secs

     total energy              =    -925.99901017 Ry
     Harris-Foulkes estimate   =    -926.94382364 Ry
     estimated scf accuracy    <       0.01204027 Ry

     iteration #  2     ecut=    75.00 Ry     beta= 0.70
     Davidson diagonalization with overlap
     ethr =  1.08E-05,  avg # of iterations =  5.0

     total cpu time spent up to now is       71.4 secs

     total energy              =    -925.98996069 Ry
     Harris-Foulkes estimate   =    -926.05158287 Ry
     estimated scf accuracy    <       0.30955317 Ry

     iteration #  3     ecut=    75.00 Ry     beta= 0.70
     Davidson diagonalization with overlap
     ethr =  1.08E-05,  avg # of iterations =  5.0

     total cpu time spent up to now is       73.0 secs

     total energy              =    -926.01177580 Ry
     Harris-Foulkes estimate   =    -926.01283007 Ry
     estimated scf accuracy    <       0.00851544 Ry

     iteration #  4     ecut=    75.00 Ry     beta= 0.70
     Davidson diagonalization with overlap
     ethr =  7.60E-06,  avg # of iterations =  1.0

     total cpu time spent up to now is       73.6 secs

     total energy              =    -926.01101003 Ry
     Harris-Foulkes estimate   =    -926.01188217 Ry
     estimated scf accuracy    <       0.00629741 Ry

     iteration #  5     ecut=    75.00 Ry     beta= 0.70
     Davidson diagonalization with overlap
     ethr =  5.62E-06,  avg # of iterations =  2.2

     total cpu time spent up to now is       74.3 secs

     total energy              =    -926.01133205 Ry
     Harris-Foulkes estimate   =    -926.01123446 Ry
     estimated scf accuracy    <       0.00245991 Ry

     iteration #  6     ecut=    75.00 Ry     beta= 0.70
     Davidson diagonalization with overlap
     ethr =  2.20E-06,  avg # of iterations =  2.0

     total cpu time spent up to now is       74.9 secs

     total energy              =    -926.01143009 Ry
     Harris-Foulkes estimate   =    -926.01143282 Ry
     estimated scf accuracy    <       0.00241465 Ry

     iteration #  7     ecut=    75.00 Ry     beta= 0.70
     Davidson diagonalization with overlap
     ethr =  2.16E-06,  avg # of iterations =  1.0

     total cpu time spent up to now is       75.5 secs

     total energy              =    -926.01146173 Ry
     Harris-Foulkes estimate   =    -926.01145597 Ry
     estimated scf accuracy    <       0.00210690 Ry

     iteration #  8     ecut=    75.00 Ry     beta= 0.70
     Davidson diagonalization with overlap
     ethr =  1.88E-06,  avg # of iterations =  1.0

     total cpu time spent up to now is       76.1 secs

     total energy              =    -926.01146885 Ry
     Harris-Foulkes estimate   =    -926.01147822 Ry
     estimated scf accuracy    <       0.00196644 Ry

     iteration #  9     ecut=    75.00 Ry     beta= 0.70
     Davidson diagonalization with overlap
     ethr =  1.76E-06,  avg # of iterations =  1.0

     total cpu time spent up to now is       76.7 secs

     total energy              =    -926.01146398 Ry
     Harris-Foulkes estimate   =    -926.01148289 Ry
     estimated scf accuracy    <       0.00173659 Ry

     iteration # 10     ecut=    75.00 Ry     beta= 0.70
     Davidson diagonalization with overlap
     ethr =  1.55E-06,  avg # of iterations =  1.0

     total cpu time spent up to now is       77.3 secs

     total energy              =    -926.01084749 Ry
     Harris-Foulkes estimate   =    -926.01147755 Ry
     estimated scf accuracy    <       0.00154341 Ry

     iteration # 11     ecut=    75.00 Ry     beta= 0.70
     Davidson diagonalization with overlap
     ethr =  1.38E-06,  avg # of iterations =  5.0

     total cpu time spent up to now is       78.7 secs

     total energy              =    -926.01184616 Ry
     Harris-Foulkes estimate   =    -926.01180637 Ry
     estimated scf accuracy    <       0.00326944 Ry

     iteration # 12     ecut=    75.00 Ry     beta= 0.70
     Davidson diagonalization with overlap
     ethr =  1.38E-06,  avg # of iterations =  1.0

     total cpu time spent up to now is       79.3 secs

     total energy              =    -926.01235574 Ry
     Harris-Foulkes estimate   =    -926.01185128 Ry
     estimated scf accuracy    <       0.00335928 Ry

     iteration # 13     ecut=    75.00 Ry     beta= 0.70
     Davidson diagonalization with overlap
     ethr =  1.38E-06,  avg # of iterations =  4.0

     total cpu time spent up to now is       80.3 secs

     total energy              =    -926.01266676 Ry
     Harris-Foulkes estimate   =    -926.01262795 Ry
     estimated scf accuracy    <       0.01052874 Ry

     iteration # 14     ecut=    75.00 Ry     beta= 0.70
     Davidson diagonalization with overlap
     ethr =  1.38E-06,  avg # of iterations =  1.0

     total cpu time spent up to now is       80.9 secs

     total energy              =    -926.01254088 Ry
     Harris-Foulkes estimate   =    -926.01267373 Ry
     estimated scf accuracy    <       0.01060832 Ry

     iteration # 15     ecut=    75.00 Ry     beta= 0.70
     Davidson diagonalization with overlap
     ethr =  1.38E-06,  avg # of iterations =  1.0

     total cpu time spent up to now is       81.5 secs

     total energy              =    -926.01165318 Ry
     Harris-Foulkes estimate   =    -926.01254418 Ry
     estimated scf accuracy    <       0.01035049 Ry

     iteration # 16     ecut=    75.00 Ry     beta= 0.70
     Davidson diagonalization with overlap
     ethr =  1.38E-06,  avg # of iterations =  3.2

     total cpu time spent up to now is       82.2 secs

     total energy              =    -926.01109264 Ry
     Harris-Foulkes estimate   =    -926.01176796 Ry
     estimated scf accuracy    <       0.00579836 Ry

     iteration # 17     ecut=    75.00 Ry     beta= 0.70
     Davidson diagonalization with overlap
     ethr =  1.38E-06,  avg # of iterations =  4.2

     total cpu time spent up to now is       83.3 secs

     total energy              =    -926.01144740 Ry
     Harris-Foulkes estimate   =    -926.01148289 Ry
     estimated scf accuracy    <       0.00066453 Ry

     iteration # 18     ecut=    75.00 Ry     beta= 0.70
     Davidson diagonalization with overlap
     ethr =  5.93E-07,  avg # of iterations =  2.8

     total cpu time spent up to now is       84.0 secs

     total energy              =    -926.01143257 Ry
     Harris-Foulkes estimate   =    -926.01146534 Ry
     estimated scf accuracy    <       0.00050330 Ry

     iteration # 19     ecut=    75.00 Ry     beta= 0.70
     Davidson diagonalization with overlap
     ethr =  4.49E-07,  avg # of iterations =  1.0

     total cpu time spent up to now is       84.6 secs

     total energy              =    -926.01137937 Ry
     Harris-Foulkes estimate   =    -926.01144042 Ry
     estimated scf accuracy    <       0.00037168 Ry

     iteration # 20     ecut=    75.00 Ry     beta= 0.70
     Davidson diagonalization with overlap
     ethr =  3.32E-07,  avg # of iterations =  4.0

     total cpu time spent up to now is       85.4 secs

     total energy              =    -926.01142323 Ry
     Harris-Foulkes estimate   =    -926.01142638 Ry
     estimated scf accuracy    <       0.00001932 Ry

     iteration # 21     ecut=    75.00 Ry     beta= 0.70
     Davidson diagonalization with overlap
     ethr =  1.73E-08,  avg # of iterations =  5.0

     total cpu time spent up to now is       86.7 secs

     total energy              =    -926.01143111 Ry
     Harris-Foulkes estimate   =    -926.01143202 Ry
     estimated scf accuracy    <       0.00002166 Ry

     iteration # 22     ecut=    75.00 Ry     beta= 0.70
     Davidson diagonalization with overlap
     ethr =  1.73E-08,  avg # of iterations =  2.5

     total cpu time spent up to now is       87.3 secs

     total energy              =    -926.01142741 Ry
     Harris-Foulkes estimate   =    -926.01143171 Ry
     estimated scf accuracy    <       0.00001944 Ry

     iteration # 23     ecut=    75.00 Ry     beta= 0.70
     Davidson diagonalization with overlap
     ethr =  1.73E-08,  avg # of iterations =  4.0

     total cpu time spent up to now is       88.2 secs

     total energy              =    -926.01142919 Ry
     Harris-Foulkes estimate   =    -926.01142957 Ry
     estimated scf accuracy    <       0.00000151 Ry

     iteration # 24     ecut=    75.00 Ry     beta= 0.70
     Davidson diagonalization with overlap
     ethr =  1.35E-09,  avg # of iterations =  5.5

     total cpu time spent up to now is       89.4 secs

     total energy              =    -926.01142962 Ry
     Harris-Foulkes estimate   =    -926.01142988 Ry
     estimated scf accuracy    <       0.00000209 Ry

     iteration # 25     ecut=    75.00 Ry     beta= 0.70
     Davidson diagonalization with overlap
     ethr =  1.35E-09,  avg # of iterations =  3.5

     total cpu time spent up to now is       90.1 secs

     total energy              =    -926.01142947 Ry
     Harris-Foulkes estimate   =    -926.01142968 Ry
     estimated scf accuracy    <       0.00000133 Ry

     iteration # 26     ecut=    75.00 Ry     beta= 0.70
     Davidson diagonalization with overlap
     ethr =  1.19E-09,  avg # of iterations =  4.0

     total cpu time spent up to now is       91.2 secs

     total energy              =    -926.01142946 Ry
     Harris-Foulkes estimate   =    -926.01142978 Ry
     estimated scf accuracy    <       0.00000121 Ry

     iteration # 27     ecut=    75.00 Ry     beta= 0.70
     Davidson diagonalization with overlap
     ethr =  1.08E-09,  avg # of iterations =  4.0

     total cpu time spent up to now is       92.0 secs

     total energy              =    -926.01142954 Ry
     Harris-Foulkes estimate   =    -926.01142957 Ry
     estimated scf accuracy    <       0.00000034 Ry

     iteration # 28     ecut=    75.00 Ry     beta= 0.70
     Davidson diagonalization with overlap
     ethr =  3.03E-10,  avg # of iterations =  4.2

     total cpu time spent up to now is       92.9 secs

     total energy              =    -926.01142960 Ry
     Harris-Foulkes estimate   =    -926.01142960 Ry
     estimated scf accuracy    <       0.00000006 Ry

     iteration # 29     ecut=    75.00 Ry     beta= 0.70
     Davidson diagonalization with overlap
     ethr =  5.75E-11,  avg # of iterations =  3.8

     total cpu time spent up to now is       93.8 secs

     total energy              =    -926.01142960 Ry
     Harris-Foulkes estimate   =    -926.01142961 Ry
     estimated scf accuracy    <       0.00000009 Ry

     iteration # 30     ecut=    75.00 Ry     beta= 0.70
     Davidson diagonalization with overlap
     ethr =  5.75E-11,  avg # of iterations =  1.0

     total cpu time spent up to now is       94.4 secs

     total energy              =    -926.01142959 Ry
     Harris-Foulkes estimate   =    -926.01142960 Ry
     estimated scf accuracy    <       0.00000006 Ry

     iteration # 31     ecut=    75.00 Ry     beta= 0.70
     Davidson diagonalization with overlap
     ethr =  5.08E-11,  avg # of iterations =  3.5

     total cpu time spent up to now is       95.2 secs

     total energy              =    -926.01142959 Ry
     Harris-Foulkes estimate   =    -926.01142959 Ry
     estimated scf accuracy    <          8.2E-09 Ry

     iteration # 32     ecut=    75.00 Ry     beta= 0.70
     Davidson diagonalization with overlap
     ethr =  7.31E-12,  avg # of iterations =  4.8

     total cpu time spent up to now is       96.4 secs

     total energy              =    -926.01142959 Ry
     Harris-Foulkes estimate   =    -926.01142959 Ry
     estimated scf accuracy    <          6.0E-09 Ry

     iteration # 33     ecut=    75.00 Ry     beta= 0.70
     Davidson diagonalization with overlap
     ethr =  5.37E-12,  avg # of iterations =  1.0

     total cpu time spent up to now is       97.0 secs

     total energy              =    -926.01142959 Ry
     Harris-Foulkes estimate   =    -926.01142959 Ry
     estimated scf accuracy    <          4.1E-09 Ry

     iteration # 34     ecut=    75.00 Ry     beta= 0.70
     Davidson diagonalization with overlap
     ethr =  3.63E-12,  avg # of iterations =  3.0

     total cpu time spent up to now is       97.7 secs

     total energy              =    -926.01142959 Ry
     Harris-Foulkes estimate   =    -926.01142959 Ry
     estimated scf accuracy    <          1.7E-09 Ry

     iteration # 35     ecut=    75.00 Ry     beta= 0.70
     Davidson diagonalization with overlap
     ethr =  1.50E-12,  avg # of iterations =  4.0

     total cpu time spent up to now is       98.9 secs

     total energy              =    -926.01142959 Ry
     Harris-Foulkes estimate   =    -926.01142959 Ry
     estimated scf accuracy    <          1.3E-09 Ry

     iteration # 36     ecut=    75.00 Ry     beta= 0.70
     Davidson diagonalization with overlap
     ethr =  1.15E-12,  avg # of iterations =  1.0

     total cpu time spent up to now is       99.5 secs

     total energy              =    -926.01142959 Ry
     Harris-Foulkes estimate   =    -926.01142959 Ry
     estimated scf accuracy    <          1.0E-09 Ry

     iteration # 37     ecut=    75.00 Ry     beta= 0.70
     Davidson diagonalization with overlap
     ethr =  9.25E-13,  avg # of iterations =  3.0

     total cpu time spent up to now is      100.2 secs

     total energy              =    -926.01142959 Ry
     Harris-Foulkes estimate   =    -926.01142959 Ry
     estimated scf accuracy    <          1.8E-10 Ry

     iteration # 38     ecut=    75.00 Ry     beta= 0.70
     Davidson diagonalization with overlap
     ethr =  1.63E-13,  avg # of iterations =  4.5

     total cpu time spent up to now is      101.3 secs

     total energy              =    -926.01142959 Ry
     Harris-Foulkes estimate   =    -926.01142959 Ry
     estimated scf accuracy    <          1.5E-11 Ry

     iteration # 39     ecut=    75.00 Ry     beta= 0.70
     Davidson diagonalization with overlap
     ethr =  1.00E-13,  avg # of iterations =  2.0

     total cpu time spent up to now is      102.0 secs

     total energy              =    -926.01142959 Ry
     Harris-Foulkes estimate   =    -926.01142959 Ry
     estimated scf accuracy    <          6.5E-12 Ry

     iteration # 40     ecut=    75.00 Ry     beta= 0.70
     Davidson diagonalization with overlap
     ethr =  1.00E-13,  avg # of iterations =  2.5

     total cpu time spent up to now is      102.6 secs

     total energy              =    -926.01142959 Ry
     Harris-Foulkes estimate   =    -926.01142959 Ry
     estimated scf accuracy    <          1.4E-11 Ry

     iteration # 41     ecut=    75.00 Ry     beta= 0.70
     Davidson diagonalization with overlap
     ethr =  1.00E-13,  avg # of iterations =  1.0

     total cpu time spent up to now is      103.3 secs

     total energy              =    -926.01142959 Ry
     Harris-Foulkes estimate   =    -926.01142959 Ry
     estimated scf accuracy    <          1.6E-11 Ry

     iteration # 42     ecut=    75.00 Ry     beta= 0.70
     Davidson diagonalization with overlap
     ethr =  1.00E-13,  avg # of iterations =  1.0

     total cpu time spent up to now is      103.8 secs

     total energy              =    -926.01142959 Ry
     Harris-Foulkes estimate   =    -926.01142959 Ry
     estimated scf accuracy    <          1.6E-11 Ry

     iteration # 43     ecut=    75.00 Ry     beta= 0.70
     Davidson diagonalization with overlap
     ethr =  1.00E-13,  avg # of iterations =  1.0

     total cpu time spent up to now is      104.5 secs

     total energy              =    -926.01142959 Ry
     Harris-Foulkes estimate   =    -926.01142959 Ry
     estimated scf accuracy    <          1.6E-11 Ry

     iteration # 44     ecut=    75.00 Ry     beta= 0.70
     Davidson diagonalization with overlap
     ethr =  1.00E-13,  avg # of iterations =  1.0

     total cpu time spent up to now is      105.1 secs

     total energy              =    -926.01142959 Ry
     Harris-Foulkes estimate   =    -926.01142959 Ry
     estimated scf accuracy    <          3.1E-11 Ry

     iteration # 45     ecut=    75.00 Ry     beta= 0.70
     Davidson diagonalization with overlap
     ethr =  1.00E-13,  avg # of iterations =  1.0

     total cpu time spent up to now is      105.7 secs

     total energy              =    -926.01142959 Ry
     Harris-Foulkes estimate   =    -926.01142959 Ry
     estimated scf accuracy    <          3.3E-11 Ry

     iteration # 46     ecut=    75.00 Ry     beta= 0.70
     Davidson diagonalization with overlap
     ethr =  1.00E-13,  avg # of iterations =  1.0

     total cpu time spent up to now is      106.3 secs

     total energy              =    -926.01142959 Ry
     Harris-Foulkes estimate   =    -926.01142959 Ry
     estimated scf accuracy    <          2.1E-11 Ry

     iteration # 47     ecut=    75.00 Ry     beta= 0.70
     Davidson diagonalization with overlap
     ethr =  1.00E-13,  avg # of iterations =  4.0

     total cpu time spent up to now is      107.2 secs

     total energy              =    -926.01142959 Ry
     Harris-Foulkes estimate   =    -926.01142959 Ry
     estimated scf accuracy    <          7.3E-11 Ry

     iteration # 48     ecut=    75.00 Ry     beta= 0.70
     Davidson diagonalization with overlap
     ethr =  1.00E-13,  avg # of iterations =  1.0

     total cpu time spent up to now is      107.8 secs

     total energy              =    -926.01142959 Ry
     Harris-Foulkes estimate   =    -926.01142959 Ry
     estimated scf accuracy    <          3.0E-11 Ry

     iteration # 49     ecut=    75.00 Ry     beta= 0.70
     Davidson diagonalization with overlap
     ethr =  1.00E-13,  avg # of iterations =  1.0

     total cpu time spent up to now is      108.4 secs

     total energy              =    -926.01142959 Ry
     Harris-Foulkes estimate   =    -926.01142959 Ry
     estimated scf accuracy    <          2.8E-11 Ry

     iteration # 50     ecut=    75.00 Ry     beta= 0.70
     Davidson diagonalization with overlap
     ethr =  1.00E-13,  avg # of iterations =  1.0

     total cpu time spent up to now is      109.0 secs

     total energy              =    -926.01142959 Ry
     Harris-Foulkes estimate   =    -926.01142959 Ry
     estimated scf accuracy    <          2.1E-11 Ry

     iteration # 51     ecut=    75.00 Ry     beta= 0.70
     Davidson diagonalization with overlap
     ethr =  1.00E-13,  avg # of iterations =  1.0

     total cpu time spent up to now is      109.6 secs

     total energy              =    -926.01142959 Ry
     Harris-Foulkes estimate   =    -926.01142959 Ry
     estimated scf accuracy    <          1.4E-11 Ry

     iteration # 52     ecut=    75.00 Ry     beta= 0.70
     Davidson diagonalization with overlap
     ethr =  1.00E-13,  avg # of iterations =  1.0

     total cpu time spent up to now is      110.2 secs

     total energy              =    -926.01142959 Ry
     Harris-Foulkes estimate   =    -926.01142959 Ry
     estimated scf accuracy    <          6.5E-12 Ry

     iteration # 53     ecut=    75.00 Ry     beta= 0.70
     Davidson diagonalization with overlap
     ethr =  1.00E-13,  avg # of iterations =  1.0

     total cpu time spent up to now is      110.8 secs

     End of self-consistent calculation

          k = 0.0000 0.0000 0.0000 ( 14499 PWs)   bands (ev):

   -60.9733 -60.9716 -60.9641 -60.9624 -34.9491 -34.9468 -34.9394 -34.9346
   -34.8721 -34.8243 -34.8056 -34.7762 -34.7740 -34.7598 -34.7465 -34.7443
   -14.2155 -14.1015 -13.2174 -13.0812 -13.0112 -12.9963 -12.6325 -12.6259
   -12.4940 -12.4890  -1.0663  -1.0554  -0.9872  -0.8829  -0.7713  -0.3670
     0.2858   0.3870   0.5677   0.6364   0.7861   0.8290   0.9560   0.9967
     1.0537   1.0903   1.3416   1.3882   1.4665   1.5437   1.6400   1.6579
     1.8384   2.0746   2.2232   2.2521   2.3452   2.5299   2.5360   2.6294

          k = 0.0000 0.2551 0.0000 ( 14508 PWs)   bands (ev):

   -60.9733 -60.9716 -60.9642 -60.9624 -34.9499 -34.9475 -34.9409 -34.9361
   -34.8719 -34.8241 -34.8056 -34.7761 -34.7739 -34.7598 -34.7465 -34.7443
   -14.1688 -14.0627 -13.1739 -13.0642 -13.0099 -12.9814 -12.6477 -12.6220
   -12.4966 -12.4664  -1.0953  -1.0840  -1.0102  -0.9143  -0.8762  -0.5261
    -0.3865  -0.1503  -0.1049   0.0307   0.4856   0.6059   0.6633   1.0357
     1.1408   1.3389   1.4885   1.5143   1.6535   1.7394   1.8602   1.9594
     2.2150   2.2194   2.2229   2.3862   2.4353   2.6394   2.7128   2.7995

          k = 0.3338 0.0000 0.0000 ( 14440 PWs)   bands (ev):

   -60.9696 -60.9678 -60.9650 -60.9632 -34.9435 -34.9414 -34.9376 -34.9340
   -34.8689 -34.8457 -34.8320 -34.8239 -34.7854 -34.7795 -34.7662 -34.7580
   -13.6848 -13.5569 -13.1261 -12.9735 -12.9675 -12.9542 -12.5741 -12.5731
   -12.5355 -12.5130  -1.5342  -1.4617  -0.7790  -0.7287  -0.6802  -0.3112
    -0.2197   0.1429   0.1582   0.4511   0.4686   0.5201   0.8423   0.9622
     1.0084   1.0473   1.0638   1.1554   1.3085   1.3109   1.4883   1.5272
     1.6003   1.9735   2.2728   2.3520   2.4654   2.6245   2.8068   2.8306

          k = 0.3338 0.2551 0.0000 ( 14486 PWs)   bands (ev):

   -60.9696 -60.9678 -60.9650 -60.9632 -34.9444 -34.9423 -34.9389 -34.9353
   -34.8688 -34.8456 -34.8318 -34.8238 -34.7854 -34.7795 -34.7662 -34.7581
   -13.6441 -13.5281 -13.0959 -12.9716 -12.9580 -12.9413 -12.5825 -12.5614
   -12.5069 -12.4833  -1.5328  -1.4592  -0.8165  -0.7826  -0.7519  -0.4128
    -0.3637  -0.2510  -0.1436   0.0292   0.0990   0.2361   0.6014   0.6316
     0.7012   0.7861   0.8768   0.9718   1.0530   1.4989   1.7269   1.9086
     2.1166   2.1814   2.4971   2.7152   2.7269   2.8631   2.9421   2.9589

     highest occupied level (ev):     2.9589

!    total energy              =    -926.01142959 Ry
     Harris-Foulkes estimate   =    -926.01142959 Ry
     estimated scf accuracy    <          9.4E-13 Ry

     The total energy is the sum of the following terms:

     one-electron contribution =    -625.71410118 Ry
     hartree contribution      =     349.83381050 Ry
     xc contribution           =    -178.16046278 Ry
     ewald contribution        =    -471.97067613 Ry

     convergence has been achieved in  53 iterations

     Forces acting on atoms (cartesian axes, Ry/au):

     atom    1 type  1   force =     0.00000000   -0.00240189   -0.00007405
     atom    2 type  1   force =     0.00000000    0.00240189    0.00007405
     atom    3 type  1   force =     0.00000000    0.00240189   -0.00007405
     atom    4 type  1   force =     0.00000000   -0.00240189    0.00007405
     atom    5 type  2   force =    -0.00000000    0.00083349   -0.00032650
     atom    6 type  2   force =     0.00000000   -0.00083349    0.00032650
     atom    7 type  2   force =     0.00000000   -0.00083349   -0.00032650
     atom    8 type  2   force =     0.00000000    0.00083349    0.00032650
     atom    9 type  2   force =     0.00000000    0.00059549    0.00018031
     atom   10 type  2   force =     0.00000000   -0.00059549   -0.00018031
     atom   11 type  2   force =     0.00000000   -0.00059549    0.00018031
     atom   12 type  2   force =    -0.00000000   -0.00139405    0.00000000
     atom   13 type  2   force =     0.00000000    0.00139405    0.00000000
     atom   14 type  2   force =     0.00000000    0.00059549   -0.00018031

     Total force =     0.005634     Total SCF correction =     0.000002


     Computing stress (Cartesian axis) and pressure

          total   stress  (Ry/bohr**3)                   (kbar)     P=   -0.06
   0.00001287   0.00000000   0.00000000          1.89      0.00      0.00
   0.00000000  -0.00002705   0.00000000          0.00     -3.98      0.00
   0.00000000   0.00000000   0.00001301          0.00      0.00      1.91


     number of scf cycles    =   3
     number of bfgs steps    =   2

     enthalpy old            =    -926.0114102585 Ry
     enthalpy new            =    -926.0114295915 Ry

     CASE: enthalpy_new < enthalpy_old

     new trust radius        =       0.0049371381 bohr
     new conv_thr            =            1.0E-12 Ry

     new unit-cell volume =   1313.66843 a.u.^3 (   194.66557 Ang^3 )
     density =      3.10295 g/cm^3

CELL_PARAMETERS (alat=  6.76758343)
   0.998434112   0.000000000   0.000000000
   0.000000000   1.305710821   0.000000000
   0.000000000   0.000000000   3.251011407

ATOMIC_POSITIONS (crystal)
V       -0.000000000   0.388681307   0.647743260
V        0.500000007   0.611318706   0.852256761
V        0.500000007   0.611318706   0.147743253
V        0.000000000   0.388681307   0.352256754
O        0.500000007   0.493833331   0.681191626
O        0.000000000   0.506166683   0.818808396
O        0.000000000   0.506166683   0.181191618
O        0.500000007   0.493833331   0.318808389
O       -0.000000000   0.048443957   0.356839654
O        0.500000007   0.951556057   0.143160353
O        0.500000007   0.951556057   0.856839661
O        0.500000007   0.500226668   0.000000000
O        0.000000000   0.499773345   0.500000007
O        0.000000000   0.048443957   0.643160360



     Writing output data file v2o5.save/
     NEW-OLD atomic charge density approx. for the potential

     Check: negative core charge=   -0.000003
     extrapolated charge  111.92751, renormalised to  112.00000

     total cpu time spent up to now is      113.0 secs

     Self-consistent Calculation

     iteration #  1     ecut=    75.00 Ry     beta= 0.70
     Davidson diagonalization with overlap
     ethr =  1.00E-06,  avg # of iterations =  5.0

     total cpu time spent up to now is      114.6 secs

     total energy              =    -926.00974082 Ry
     Harris-Foulkes estimate   =    -926.34361685 Ry
     estimated scf accuracy    <       0.00167005 Ry

     iteration #  2     ecut=    75.00 Ry     beta= 0.70
     Davidson diagonalization with overlap
     ethr =  1.49E-06,  avg # of iterations =  5.8

     total cpu time spent up to now is      116.1 secs

     total energy              =    -926.00816176 Ry
     Harris-Foulkes estimate   =    -926.01716181 Ry
     estimated scf accuracy    <       0.04689495 Ry

     iteration #  3     ecut=    75.00 Ry     beta= 0.70
     Davidson diagonalization with overlap
     ethr =  1.49E-06,  avg # of iterations =  5.0

     total cpu time spent up to now is      117.7 secs

     total energy              =    -926.01150140 Ry
     Harris-Foulkes estimate   =    -926.01163983 Ry
     estimated scf accuracy    <       0.00106943 Ry

     iteration #  4     ecut=    75.00 Ry     beta= 0.70
     Davidson diagonalization with overlap
     ethr =  9.55E-07,  avg # of iterations =  1.0

     total cpu time spent up to now is      118.3 secs

     total energy              =    -926.01139850 Ry
     Harris-Foulkes estimate   =    -926.01151745 Ry
     estimated scf accuracy    <       0.00077519 Ry

     iteration #  5     ecut=    75.00 Ry     beta= 0.70
     Davidson diagonalization with overlap
     ethr =  6.92E-07,  avg # of iterations =  3.0

     total cpu time spent up to now is      119.0 secs

     total energy              =    -926.01143355 Ry
     Harris-Foulkes estimate   =    -926.01143151 Ry
     estimated scf accuracy    <       0.00028970 Ry

     iteration #  6     ecut=    75.00 Ry     beta= 0.70
     Davidson diagonalization with overlap
     ethr =  2.59E-07,  avg # of iterations =  4.0

     total cpu time spent up to now is      119.8 secs

     total energy              =    -926.01145790 Ry
     Harris-Foulkes estimate   =    -926.01145369 Ry
     estimated scf accuracy    <       0.00017971 Ry

     iteration #  7     ecut=    75.00 Ry     beta= 0.70
     Davidson diagonalization with overlap
     ethr =  1.60E-07,  avg # of iterations =  1.0

     total cpu time spent up to now is      120.4 secs

     total energy              =    -926.01146315 Ry
     Harris-Foulkes estimate   =    -926.01146103 Ry
     estimated scf accuracy    <       0.00016482 Ry

     iteration #  8     ecut=    75.00 Ry     beta= 0.70
     Davidson diagonalization with overlap
     ethr =  1.47E-07,  avg # of iterations =  1.0

     total cpu time spent up to now is      121.0 secs

     total energy              =    -926.01146388 Ry
     Harris-Foulkes estimate   =    -926.01146483 Ry
     estimated scf accuracy    <       0.00015794 Ry

     iteration #  9     ecut=    75.00 Ry     beta= 0.70
     Davidson diagonalization with overlap
     ethr =  1.41E-07,  avg # of iterations =  1.0

     total cpu time spent up to now is      121.6 secs

     total energy              =    -926.01146818 Ry
     Harris-Foulkes estimate   =    -926.01146526 Ry
     estimated scf accuracy    <       0.00014256 Ry

     iteration # 10     ecut=    75.00 Ry     beta= 0.70
     Davidson diagonalization with overlap
     ethr =  1.27E-07,  avg # of iterations =  1.0

     total cpu time spent up to now is      122.2 secs

     total energy              =    -926.01143454 Ry
     Harris-Foulkes estimate   =    -926.01146920 Ry
     estimated scf accuracy    <       0.00014230 Ry

     iteration # 11     ecut=    75.00 Ry     beta= 0.70
     Davidson diagonalization with overlap
     ethr =  1.27E-07,  avg # of iterations =  4.5

     total cpu time spent up to now is      123.5 secs

     total energy              =    -926.01144827 Ry
     Harris-Foulkes estimate   =    -926.01148268 Ry
     estimated scf accuracy    <       0.00015396 Ry

     iteration # 12     ecut=    75.00 Ry     beta= 0.70
     Davidson diagonalization with overlap
     ethr =  1.27E-07,  avg # of iterations =  5.0

     total cpu time spent up to now is      125.1 secs

     total energy              =    -926.01098918 Ry
     Harris-Foulkes estimate   =    -926.01247063 Ry
     estimated scf accuracy    <       0.00845928 Ry

     iteration # 13     ecut=    75.00 Ry     beta= 0.70
     Davidson diagonalization with overlap
     ethr =  1.27E-07,  avg # of iterations =  5.0

     total cpu time spent up to now is      126.6 secs

     total energy              =    -926.01167776 Ry
     Harris-Foulkes estimate   =    -926.01158040 Ry
     estimated scf accuracy    <       0.00081944 Ry

     iteration # 14     ecut=    75.00 Ry     beta= 0.70
     Davidson diagonalization with overlap
     ethr =  1.27E-07,  avg # of iterations =  5.0

     total cpu time spent up to now is      128.3 secs

     total energy              =    -926.01098609 Ry
     Harris-Foulkes estimate   =    -926.01194069 Ry
     estimated scf accuracy    <       0.00409734 Ry

     iteration # 15     ecut=    75.00 Ry     beta= 0.70
     Davidson diagonalization with overlap
     ethr =  1.27E-07,  avg # of iterations =  5.0

     total cpu time spent up to now is      129.8 secs

     total energy              =    -926.01146985 Ry
     Harris-Foulkes estimate   =    -926.01146368 Ry
     estimated scf accuracy    <       0.00002307 Ry

     iteration # 16     ecut=    75.00 Ry     beta= 0.70
     Davidson diagonalization with overlap
     ethr =  2.06E-08,  avg # of iterations =  5.0

     total cpu time spent up to now is      131.1 secs

     total energy              =    -926.01144908 Ry
     Harris-Foulkes estimate   =    -926.01148168 Ry
     estimated scf accuracy    <       0.00017652 Ry

     iteration # 17     ecut=    75.00 Ry     beta= 0.70
     Davidson diagonalization with overlap
     ethr =  2.06E-08,  avg # of iterations =  4.0

     total cpu time spent up to now is      132.4 secs

     total energy              =    -926.01145994 Ry
     Harris-Foulkes estimate   =    -926.01146124 Ry
     estimated scf accuracy    <       0.00000603 Ry

     iteration # 18     ecut=    75.00 Ry     beta= 0.70
     Davidson diagonalization with overlap
     ethr =  5.38E-09,  avg # of iterations =  2.0

     total cpu time spent up to now is      133.0 secs

     total energy              =    -926.01145991 Ry
     Harris-Foulkes estimate   =    -926.01146017 Ry
     estimated scf accuracy    <       0.00000252 Ry

     iteration # 19     ecut=    75.00 Ry     beta= 0.70
     Davidson diagonalization with overlap
     ethr =  2.25E-09,  avg # of iterations =  4.2

     total cpu time spent up to now is      134.1 secs

     total energy              =    -926.01146045 Ry
     Harris-Foulkes estimate   =    -926.01146046 Ry
     estimated scf accuracy    <       0.00000006 Ry

     iteration # 20     ecut=    75.00 Ry     beta= 0.70
     Davidson diagonalization with overlap
     ethr =  5.08E-11,  avg # of iterations =  5.8

     total cpu time spent up to now is      135.2 secs

     total energy              =    -926.01146051 Ry
     Harris-Foulkes estimate   =    -926.01146053 Ry
     estimated scf accuracy    <       0.00000017 Ry

     iteration # 21     ecut=    75.00 Ry     beta= 0.70
     Davidson diagonalization with overlap
     ethr =  5.08E-11,  avg # of iterations =  1.0

     total cpu time spent up to now is      135.8 secs

     total energy              =    -926.01146049 Ry
     Harris-Foulkes estimate   =    -926.01146051 Ry
     estimated scf accuracy    <       0.00000012 Ry

     iteration # 22     ecut=    75.00 Ry     beta= 0.70
     Davidson diagonalization with overlap
     ethr =  5.08E-11,  avg # of iterations =  4.0

     total cpu time spent up to now is      136.8 secs

     total energy              =    -926.01146051 Ry
     Harris-Foulkes estimate   =    -926.01146051 Ry
     estimated scf accuracy    <          1.4E-09 Ry

     iteration # 23     ecut=    75.00 Ry     beta= 0.70
     Davidson diagonalization with overlap
     ethr =  1.29E-12,  avg # of iterations =  5.2

     total cpu time spent up to now is      138.1 secs

     total energy              =    -926.01146051 Ry
     Harris-Foulkes estimate   =    -926.01146051 Ry
     estimated scf accuracy    <          9.9E-10 Ry

     iteration # 24     ecut=    75.00 Ry     beta= 0.70
     Davidson diagonalization with overlap
     ethr =  8.82E-13,  avg # of iterations =  1.0

     total cpu time spent up to now is      138.7 secs

     total energy              =    -926.01146051 Ry
     Harris-Foulkes estimate   =    -926.01146051 Ry
     estimated scf accuracy    <          6.5E-10 Ry

     iteration # 25     ecut=    75.00 Ry     beta= 0.70
     Davidson diagonalization with overlap
     ethr =  5.80E-13,  avg # of iterations =  2.0

     total cpu time spent up to now is      139.4 secs

     total energy              =    -926.01146051 Ry
     Harris-Foulkes estimate   =    -926.01146051 Ry
     estimated scf accuracy    <          3.1E-10 Ry

     iteration # 26     ecut=    75.00 Ry     beta= 0.70
     Davidson diagonalization with overlap
     ethr =  2.78E-13,  avg # of iterations =  4.2

     total cpu time spent up to now is      140.4 secs

     total energy              =    -926.01146051 Ry
     Harris-Foulkes estimate   =    -926.01146051 Ry
     estimated scf accuracy    <          1.9E-11 Ry

     iteration # 27     ecut=    75.00 Ry     beta= 0.70
     Davidson diagonalization with overlap
     ethr =  1.00E-13,  avg # of iterations =  4.2

     total cpu time spent up to now is      141.2 secs

     total energy              =    -926.01146051 Ry
     Harris-Foulkes estimate   =    -926.01146051 Ry
     estimated scf accuracy    <          3.4E-11 Ry

     iteration # 28     ecut=    75.00 Ry     beta= 0.70
     Davidson diagonalization with overlap
     ethr =  1.00E-13,  avg # of iterations =  1.0

     total cpu time spent up to now is      141.8 secs

     total energy              =    -926.01146051 Ry
     Harris-Foulkes estimate   =    -926.01146051 Ry
     estimated scf accuracy    <          2.4E-11 Ry

     iteration # 29     ecut=    75.00 Ry     beta= 0.70
[...]
        12           O   tau(  12) = (   0.4994149   0.6459294   0.0000000  )
        13           O   tau(  13) = (   0.0000000   0.6500386   1.6265468  )
        14           O   tau(  14) = (   0.0000000   0.0595982   2.0914408  )

     number of k points=     4
                       cart. coord. in units 2pi/alat
        k(    1) = (   0.0000000   0.0000000   0.0000000), wk =   0.2222222
        k(    2) = (   0.0000000   0.2572080   0.0000000), wk =   0.4444444
        k(    3) = (   0.3337239   0.0000000   0.0000000), wk =   0.4444444
        k(    4) = (   0.3337239   0.2572080   0.0000000), wk =   0.8888889

     Dense  grid:   114585 G-vectors     FFT dimensions: (  40,  50, 128)

     Estimated max dynamical RAM per process >      14.85 MB

     Estimated total dynamical RAM >     475.28 MB

     Check: negative core charge=   -0.000003

     Initial potential from superposition of free atoms

     starting charge  111.99579, renormalised to  112.00000
     Starting wfcs are   80 randomized atomic wfcs

     total cpu time spent up to now is      341.5 secs

     Self-consistent Calculation

     iteration #  1     ecut=    75.00 Ry     beta= 0.70
     Davidson diagonalization with overlap
     ethr =  1.00E-06,  avg # of iterations =  7.8

     total cpu time spent up to now is      344.2 secs

     total energy              =    -920.78345048 Ry
     Harris-Foulkes estimate   =    -927.69689894 Ry
     estimated scf accuracy    <       8.65690476 Ry

     iteration #  2     ecut=    75.00 Ry     beta= 0.70
     Davidson diagonalization with overlap
     ethr =  7.73E-03,  avg # of iterations =  6.2

     total cpu time spent up to now is      345.9 secs

     total energy              =    -911.05576418 Ry
     Harris-Foulkes estimate   =    -944.97419912 Ry
     estimated scf accuracy    <     151.85073079 Ry

     iteration #  3     ecut=    75.00 Ry     beta= 0.70
     Davidson diagonalization with overlap
     ethr =  7.73E-03,  avg # of iterations =  5.8

     total cpu time spent up to now is      347.5 secs

     total energy              =    -925.71358755 Ry
     Harris-Foulkes estimate   =    -926.64758909 Ry
     estimated scf accuracy    <       2.99372399 Ry

     iteration #  4     ecut=    75.00 Ry     beta= 0.70
     Davidson diagonalization with overlap
     ethr =  2.67E-03,  avg # of iterations =  4.0

     total cpu time spent up to now is      348.5 secs

     total energy              =    -925.95352208 Ry
     Harris-Foulkes estimate   =    -926.10344984 Ry
     estimated scf accuracy    <       0.90581954 Ry

     iteration #  5     ecut=    75.00 Ry     beta= 0.70
     Davidson diagonalization with overlap
     ethr =  8.09E-04,  avg # of iterations =  3.2

     total cpu time spent up to now is      349.2 secs

     total energy              =    -925.86847656 Ry
     Harris-Foulkes estimate   =    -926.01558732 Ry
     estimated scf accuracy    <       0.50214437 Ry

     iteration #  6     ecut=    75.00 Ry     beta= 0.70
     Davidson diagonalization with overlap
     ethr =  4.48E-04,  avg # of iterations =  4.0

     total cpu time spent up to now is      350.4 secs

     total energy              =    -926.02542870 Ry
     Harris-Foulkes estimate   =    -926.04229568 Ry
     estimated scf accuracy    <       0.26333670 Ry

     iteration #  7     ecut=    75.00 Ry     beta= 0.70
     Davidson diagonalization with overlap
     ethr =  2.35E-04,  avg # of iterations =  1.0

     total cpu time spent up to now is      351.0 secs

     total energy              =    -925.98680937 Ry
     Harris-Foulkes estimate   =    -926.02761010 Ry
     estimated scf accuracy    <       0.21843809 Ry

     iteration #  8     ecut=    75.00 Ry     beta= 0.70
     Davidson diagonalization with overlap
     ethr =  1.95E-04,  avg # of iterations =  3.2

     total cpu time spent up to now is      351.7 secs

     total energy              =    -925.99745555 Ry
     Harris-Foulkes estimate   =    -926.00403317 Ry
     estimated scf accuracy    <       0.03395332 Ry

     iteration #  9     ecut=    75.00 Ry     beta= 0.70
     Davidson diagonalization with overlap
     ethr =  3.03E-05,  avg # of iterations =  4.8

     total cpu time spent up to now is      352.9 secs

     total energy              =    -926.01053679 Ry
     Harris-Foulkes estimate   =    -926.01227236 Ry
     estimated scf accuracy    <       0.01066856 Ry

     iteration # 10     ecut=    75.00 Ry     beta= 0.70
     Davidson diagonalization with overlap
     ethr =  9.53E-06,  avg # of iterations =  1.8

     total cpu time spent up to now is      353.5 secs

     total energy              =    -926.00969859 Ry
     Harris-Foulkes estimate   =    -926.01081455 Ry
     estimated scf accuracy    <       0.00581273 Ry

     iteration # 11     ecut=    75.00 Ry     beta= 0.70
     Davidson diagonalization with overlap
     ethr =  5.19E-06,  avg # of iterations =  4.2

     total cpu time spent up to now is      354.6 secs

     total energy              =    -926.01089384 Ry
     Harris-Foulkes estimate   =    -926.01110345 Ry
     estimated scf accuracy    <       0.00104150 Ry

     iteration # 12     ecut=    75.00 Ry     beta= 0.70
     Davidson diagonalization with overlap
     ethr =  9.30E-07,  avg # of iterations =  3.8

     total cpu time spent up to now is      355.3 secs

     total energy              =    -926.01093167 Ry
     Harris-Foulkes estimate   =    -926.01096113 Ry
     estimated scf accuracy    <       0.00028439 Ry

     iteration # 13     ecut=    75.00 Ry     beta= 0.70
     Davidson diagonalization with overlap
     ethr =  2.54E-07,  avg # of iterations =  4.2

     total cpu time spent up to now is      356.4 secs

     total energy              =    -926.01099075 Ry
     Harris-Foulkes estimate   =    -926.01100045 Ry
     estimated scf accuracy    <       0.00003111 Ry

     iteration # 14     ecut=    75.00 Ry     beta= 0.70
     Davidson diagonalization with overlap
     ethr =  2.78E-08,  avg # of iterations =  4.5

     total cpu time spent up to now is      357.3 secs

     total energy              =    -926.01099602 Ry
     Harris-Foulkes estimate   =    -926.01099625 Ry
     estimated scf accuracy    <       0.00000136 Ry

     iteration # 15     ecut=    75.00 Ry     beta= 0.70
     Davidson diagonalization with overlap
     ethr =  1.21E-09,  avg # of iterations =  5.0

     total cpu time spent up to now is      358.6 secs

     total energy              =    -926.01099677 Ry
     Harris-Foulkes estimate   =    -926.01099702 Ry
     estimated scf accuracy    <       0.00000203 Ry

     iteration # 16     ecut=    75.00 Ry     beta= 0.70
     Davidson diagonalization with overlap
     ethr =  1.21E-09,  avg # of iterations =  3.0

     total cpu time spent up to now is      359.3 secs

     total energy              =    -926.01099673 Ry
     Harris-Foulkes estimate   =    -926.01099684 Ry
     estimated scf accuracy    <       0.00000113 Ry

     iteration # 17     ecut=    75.00 Ry     beta= 0.70
     Davidson diagonalization with overlap
     ethr =  1.00E-09,  avg # of iterations =  3.0

     total cpu time spent up to now is      360.0 secs

     total energy              =    -926.01099672 Ry
     Harris-Foulkes estimate   =    -926.01099676 Ry
     estimated scf accuracy    <       0.00000074 Ry

     iteration # 18     ecut=    75.00 Ry     beta= 0.70
     Davidson diagonalization with overlap
     ethr =  6.62E-10,  avg # of iterations =  3.2

     total cpu time spent up to now is      360.7 secs

     total energy              =    -926.01099672 Ry
     Harris-Foulkes estimate   =    -926.01099675 Ry
     estimated scf accuracy    <       0.00000048 Ry

     iteration # 19     ecut=    75.00 Ry     beta= 0.70
     Davidson diagonalization with overlap
     ethr =  4.27E-10,  avg # of iterations =  4.0

     total cpu time spent up to now is      361.5 secs

     total energy              =    -926.01099668 Ry
     Harris-Foulkes estimate   =    -926.01099675 Ry
     estimated scf accuracy    <       0.00000025 Ry

     iteration # 20     ecut=    75.00 Ry     beta= 0.70
     Davidson diagonalization with overlap
     ethr =  2.22E-10,  avg # of iterations =  4.5

     total cpu time spent up to now is      362.6 secs

     total energy              =    -926.01099675 Ry
     Harris-Foulkes estimate   =    -926.01099677 Ry
     estimated scf accuracy    <       0.00000014 Ry

     iteration # 21     ecut=    75.00 Ry     beta= 0.70
     Davidson diagonalization with overlap
     ethr =  1.23E-10,  avg # of iterations =  1.0

     total cpu time spent up to now is      363.2 secs

     total energy              =    -926.01099674 Ry
     Harris-Foulkes estimate   =    -926.01099675 Ry
     estimated scf accuracy    <       0.00000009 Ry

     iteration # 22     ecut=    75.00 Ry     beta= 0.70
     Davidson diagonalization with overlap
     ethr =  7.60E-11,  avg # of iterations =  4.0

     total cpu time spent up to now is      364.2 secs

     total energy              =    -926.01099675 Ry
     Harris-Foulkes estimate   =    -926.01099676 Ry
     estimated scf accuracy    <       0.00000002 Ry

     iteration # 23     ecut=    75.00 Ry     beta= 0.70
     Davidson diagonalization with overlap
     ethr =  1.66E-11,  avg # of iterations =  2.8

     total cpu time spent up to now is      364.9 secs

     total energy              =    -926.01099675 Ry
     Harris-Foulkes estimate   =    -926.01099675 Ry
     estimated scf accuracy    <       0.00000001 Ry

     iteration # 24     ecut=    75.00 Ry     beta= 0.70
     Davidson diagonalization with overlap
     ethr =  1.19E-11,  avg # of iterations =  4.0

     total cpu time spent up to now is      365.7 secs

     total energy              =    -926.01099675 Ry
     Harris-Foulkes estimate   =    -926.01099675 Ry
     estimated scf accuracy    <          4.2E-10 Ry

     iteration # 25     ecut=    75.00 Ry     beta= 0.70
     Davidson diagonalization with overlap
     ethr =  3.71E-13,  avg # of iterations =  5.0

     total cpu time spent up to now is      367.0 secs

     total energy              =    -926.01099675 Ry
     Harris-Foulkes estimate   =    -926.01099675 Ry
     estimated scf accuracy    <          1.1E-10 Ry

     iteration # 26     ecut=    75.00 Ry     beta= 0.70
     Davidson diagonalization with overlap
     ethr =  1.00E-13,  avg # of iterations =  3.2

     total cpu time spent up to now is      367.8 secs

     total energy              =    -926.01099675 Ry
     Harris-Foulkes estimate   =    -926.01099675 Ry
     estimated scf accuracy    <          2.6E-11 Ry

     iteration # 27     ecut=    75.00 Ry     beta= 0.70
     Davidson diagonalization with overlap
     ethr =  1.00E-13,  avg # of iterations =  4.0

     total cpu time spent up to now is      368.8 secs

     total energy              =    -926.01099675 Ry
     Harris-Foulkes estimate   =    -926.01099675 Ry
     estimated scf accuracy    <          1.5E-10 Ry

     iteration # 28     ecut=    75.00 Ry     beta= 0.70
     Davidson diagonalization with overlap
     ethr =  1.00E-13,  avg # of iterations =  1.0

     total cpu time spent up to now is      369.4 secs

     total energy              =    -926.01099675 Ry
     Harris-Foulkes estimate   =    -926.01099675 Ry
     estimated scf accuracy    <          9.3E-11 Ry

     iteration # 29     ecut=    75.00 Ry     beta= 0.70
     Davidson diagonalization with overlap
     ethr =  1.00E-13,  avg # of iterations =  3.0

     total cpu time spent up to now is      370.2 secs

     total energy              =    -926.01099675 Ry
     Harris-Foulkes estimate   =    -926.01099675 Ry
     estimated scf accuracy    <          2.0E-11 Ry

     iteration # 30     ecut=    75.00 Ry     beta= 0.70
     Davidson diagonalization with overlap
     ethr =  1.00E-13,  avg # of iterations =  1.0

     total cpu time spent up to now is      370.8 secs

     total energy              =    -926.01099675 Ry
     Harris-Foulkes estimate   =    -926.01099675 Ry
     estimated scf accuracy    <          2.0E-11 Ry

     iteration # 31     ecut=    75.00 Ry     beta= 0.70
     Davidson diagonalization with overlap
     ethr =  1.00E-13,  avg # of iterations =  1.0

     total cpu time spent up to now is      371.4 secs

     total energy              =    -926.01099675 Ry
     Harris-Foulkes estimate   =    -926.01099675 Ry
     estimated scf accuracy    <          6.0E-12 Ry

     iteration # 32     ecut=    75.00 Ry     beta= 0.70
     Davidson diagonalization with overlap
     ethr =  1.00E-13,  avg # of iterations =  1.0

     total cpu time spent up to now is      372.0 secs

     total energy              =    -926.01099675 Ry
     Harris-Foulkes estimate   =    -926.01099675 Ry
     estimated scf accuracy    <          1.3E-12 Ry

     iteration # 33     ecut=    75.00 Ry     beta= 0.70
     Davidson diagonalization with overlap
     ethr =  1.00E-13,  avg # of iterations =  1.0

     total cpu time spent up to now is      372.6 secs

     End of self-consistent calculation

          k = 0.0000 0.0000 0.0000 ( 14287 PWs)   bands (ev):

   -60.8942 -60.8925 -60.8850 -60.8833 -34.8723 -34.8700 -34.8625 -34.8579
   -34.7907 -34.7431 -34.7247 -34.6953 -34.6931 -34.6789 -34.6658 -34.6636
   -14.1234 -14.0079 -13.1338 -12.9937 -12.9197 -12.9068 -12.5580 -12.5546
   -12.4241 -12.4154  -0.9677  -0.9571  -0.8908  -0.7831  -0.6799  -0.2718
     0.3902   0.4685   0.6630   0.7319   0.8653   0.9084   1.0518   1.0821
     1.1205   1.1843   1.4277   1.4556   1.5583   1.6134   1.7132   1.7457
     1.9032   2.1757   2.2953   2.3245   2.4249   2.5973   2.6113   2.7135

          k = 0.0000 0.2572 0.0000 ( 14352 PWs)   bands (ev):

   -60.8942 -60.8925 -60.8851 -60.8833 -34.8731 -34.8708 -34.8642 -34.8596
   -34.7905 -34.7429 -34.7247 -34.6952 -34.6931 -34.6789 -34.6658 -34.6636
   -14.0721 -13.9655 -13.0835 -12.9734 -12.9182 -12.8897 -12.5758 -12.5497
   -12.4250 -12.3951  -1.0000  -0.9888  -0.9183  -0.8177  -0.7864  -0.4640
    -0.3013  -0.0843  -0.0462   0.1002   0.5419   0.6714   0.7300   1.1034
     1.2167   1.4230   1.5832   1.5965   1.7421   1.8136   1.9419   2.0383
     2.2974   2.3054   2.3256   2.4779   2.5238   2.7271   2.8100   2.8888

          k = 0.3337 0.0000 0.0000 ( 14298 PWs)   bands (ev):

   -60.8905 -60.8888 -60.8859 -60.8842 -34.8667 -34.8646 -34.8608 -34.8573
   -34.7875 -34.7644 -34.7507 -34.7427 -34.7045 -34.6986 -34.6853 -34.6771
   -13.5954 -13.4657 -13.0394 -12.8835 -12.8792 -12.8648 -12.5034 -12.5007
   -12.4689 -12.4402  -1.4343  -1.3627  -0.6858  -0.6371  -0.5872  -0.2259
    -0.1308   0.2373   0.2588   0.5484   0.5617   0.6067   0.9307   1.0478
     1.0932   1.1400   1.1533   1.2498   1.3885   1.4075   1.5490   1.6166
     1.6719   2.0491   2.3412   2.4207   2.5398   2.6850   2.8865   2.9233

          k = 0.3337 0.2572 0.0000 ( 14323 PWs)   bands (ev):

   -60.8905 -60.8887 -60.8860 -60.8842 -34.8677 -34.8656 -34.8623 -34.8588
   -34.7874 -34.7643 -34.7505 -34.7426 -34.7045 -34.6986 -34.6853 -34.6772
   -13.5505 -13.4341 -13.0046 -12.8812 -12.8681 -12.8498 -12.5105 -12.4891
   -12.4354 -12.4125  -1.4329  -1.3598  -0.7275  -0.6971  -0.6629  -0.3412
    -0.2849  -0.1692  -0.0732   0.0937   0.1601   0.3271   0.6586   0.7109
     0.7856   0.8564   0.9494   1.0471   1.1299   1.5809   1.8163   1.9873
     2.2064   2.2626   2.5899   2.8060   2.8222   2.9517   3.0392   3.0467

     highest occupied level (ev):     3.0467

!    total energy              =    -926.01099675 Ry
     Harris-Foulkes estimate   =    -926.01099675 Ry
     estimated scf accuracy    <          7.4E-13 Ry

     The total energy is the sum of the following terms:

     one-electron contribution =    -618.81834717 Ry
     hartree contribution      =     346.72406556 Ry
     xc contribution           =    -178.16037427 Ry
     ewald contribution        =    -475.75634088 Ry

     convergence has been achieved in  33 iterations

     Forces acting on atoms (cartesian axes, Ry/au):

     atom    1 type  1   force =    -0.00000000    0.00084142   -0.00014422
     atom    2 type  1   force =     0.00000000   -0.00084142    0.00014422
     atom    3 type  1   force =     0.00000000   -0.00084142   -0.00014422
     atom    4 type  1   force =     0.00000000    0.00084142    0.00014422
     atom    5 type  2   force =     0.00000000   -0.00021568    0.00026453
     atom    6 type  2   force =     0.00000000    0.00021568   -0.00026453
     atom    7 type  2   force =     0.00000000    0.00021568    0.00026453
     atom    8 type  2   force =     0.00000000   -0.00021568   -0.00026453
     atom    9 type  2   force =     0.00000000   -0.00027813    0.00020509
     atom   10 type  2   force =     0.00000000    0.00027813   -0.00020509
     atom   11 type  2   force =    -0.00000000    0.00027813    0.00020509
     atom   12 type  2   force =    -0.00000000    0.00077140    0.00000000
     atom   13 type  2   force =     0.00000000   -0.00077140   -0.00000000
     atom   14 type  2   force =    -0.00000000   -0.00027813   -0.00020509

     Total force =     0.002247     Total SCF correction =     0.000001


     Computing stress (Cartesian axis) and pressure

          total   stress  (Ry/bohr**3)                   (kbar)     P=   -0.77
  -0.00000526   0.00000000   0.00000000         -0.77      0.00      0.00
   0.00000000  -0.00000960   0.00000000          0.00     -1.41      0.00
   0.00000000   0.00000000  -0.00000077          0.00      0.00     -0.11


     Writing output data file v2o5.save/

     init_run     :      1.47s CPU      1.49s WALL (       2 calls)
     electrons    :    346.25s CPU    350.90s WALL (      10 calls)
     update_pot   :      5.30s CPU      5.31s WALL (       8 calls)
     forces       :      5.61s CPU      5.68s WALL (      10 calls)
     stress       :      9.71s CPU      9.75s WALL (      10 calls)

     Called by init_run:
     wfcinit      :      0.62s CPU      0.63s WALL (       2 calls)
     potinit      :      0.32s CPU      0.32s WALL (       2 calls)
     hinit0       :      0.49s CPU      0.49s WALL (       2 calls)

     Called by electrons:
     c_bands      :    313.68s CPU    317.74s WALL (     382 calls)
     sum_band     :     15.40s CPU     15.71s WALL (     382 calls)
     v_of_rho     :     16.26s CPU     16.38s WALL (     392 calls)
     mix_rho      :      1.10s CPU      1.11s WALL (     382 calls)

     Called by c_bands:
     init_us_2    :      3.31s CPU      3.38s WALL (    3144 calls)
     cegterg      :    303.86s CPU    307.70s WALL (    1528 calls)

     Called by sum_band:

     Called by *egterg:
     h_psi        :    156.35s CPU    158.43s WALL (    6218 calls)
     g_psi        :      0.46s CPU      0.46s WALL (    4682 calls)
     cdiaghg      :     53.52s CPU     54.81s WALL (    6178 calls)

     Called by h_psi:
     h_psi:pot    :    155.68s CPU    157.75s WALL (    6218 calls)
     h_psi:calbec :     51.55s CPU     52.48s WALL (    6218 calls)
     vloc_psi     :     69.01s CPU     70.08s WALL (    6218 calls)
     add_vuspsi   :     35.07s CPU     35.16s WALL (    6218 calls)

     General routines
     calbec       :     54.20s CPU     55.19s WALL (    6418 calls)
     fft          :      8.36s CPU      8.42s WALL (   25208 calls)
     ffts         :      0.11s CPU      0.11s WALL (     382 calls)
     fftw         :     74.58s CPU     75.78s WALL (  535974 calls)

     Parallel routines
     fft_scatt_xy :      5.70s CPU      5.78s WALL (  561564 calls)
     fft_scatt_yz :     47.25s CPU     48.02s WALL (  561564 calls)

     PWSCF        :   6m 8.98s CPU   6m14.02s WALL


   This run was terminated on:   2: 2:34  19May2024            

=------------------------------------------------------------------------------=
   JOB DONE.
=------------------------------------------------------------------------------=
