
     Program PHONON v.6.7MaX starts on 13Oct2024 at 15:40:47 

     This program is part of the open-source Quantum ESPRESSO suite
     for quantum simulation of materials; please cite
         "P. Giannozzi et al., J. Phys.:Condens. Matter 21 395502 (2009);
         "P. Giannozzi et al., J. Phys.:Condens. Matter 29 465901 (2017);
          URL http://www.quantum-espresso.org", 
     in publications or presentations arising from this work. More details at
     http://www.quantum-espresso.org/quote

     Parallel version (MPI), running on    32 processors

     MPI processes distributed on     1 nodes
     R & G space division:  proc/nbgrp/npool/nimage =      32
     Reading input from ph.in
      Title line not specified: using 'default'.

     Reading xml data from directory:

     outdir/v2o5.save/
     Message from routine read_pp_mesh:
     mesh size missing, using the one in header
     Message from routine read_pp_mesh:
     mesh size missing, using the one in header

     IMPORTANT: XC functional enforced from input :
     Exchange-correlation= PBE
                           (   1   4   3   4   0   0   0)
     Any further DFT definition will be discarded
     Please, verify this is what you really want


     Parallelization info
     --------------------
     sticks:   dense  smooth     PW     G-vecs:    dense   smooth      PW
     Min         119      47     12                15589     3939     550
     Max         120      48     13                15602     3952     563
     Sum        3825    1533    411               499031   126259   17859

     Reading collected, re-writing distributed wavefunctions

     Calculation of q =    0.0000000   0.0000000   0.0000000

     default                                                                    

     bravais-lattice index     =            8
     lattice parameter (alat)  =       6.7427  a.u.
     unit-cell volume          =    1306.4221 (a.u.)^3
     number of atoms/cell      =           14
     number of atomic types    =            2
     kinetic-energy cut-off    =      80.0000  Ry
     charge density cut-off    =     800.0000  Ry
     convergence threshold     =      1.0E-14
     beta                      =       0.5000
     number of iterations used =            4
     Exchange-correlation= PBE
                           (   1   4   3   4   0   0   0)


     celldm(1)=    6.74268  celldm(2)=    1.32037  celldm(3)=    3.22768
     celldm(4)=    0.00000  celldm(5)=    0.00000  celldm(6)=    0.00000

     crystal axes: (cart. coord. in units of alat)
               a(1) = (  1.0000  0.0000  0.0000 )  
               a(2) = (  0.0000  1.3204  0.0000 )  
               a(3) = (  0.0000  0.0000  3.2277 )  

     reciprocal axes: (cart. coord. in units 2 pi/alat)
               b(1) = (  1.0000  0.0000  0.0000 )  
               b(2) = (  0.0000  0.7574  0.0000 )  
               b(3) = (  0.0000  0.0000  0.3098 )  


     Atoms inside the unit cell: 

     Cartesian axes

     site n.  atom      mass           positions (alat units)
        1     V   50.9415   tau(    1) = (    0.00000    0.51447    2.09315  )
        2     V   50.9415   tau(    2) = (    0.50000    0.80590    2.74837  )
        3     V   50.9415   tau(    3) = (    0.50000    0.80590    0.47931  )
        4     V   50.9415   tau(    4) = (    0.00000    0.51447    1.13453  )
        5     O   15.9994   tau(    5) = (    0.50000    0.64837    2.19969  )
        6     O   15.9994   tau(    6) = (    0.00000    0.67199    2.64182  )
        7     O   15.9994   tau(    7) = (    0.00000    0.67199    0.58585  )
        8     O   15.9994   tau(    8) = (    0.50000    0.64837    1.02798  )
        9     O   15.9994   tau(    9) = (    0.00000    0.07187    1.14893  )
       10     O   15.9994   tau(   10) = (    0.50000    1.24849    0.46491  )
       11     O   15.9994   tau(   11) = (    0.50000    1.24849    2.76277  )
       12     O   15.9994   tau(   12) = (    0.50000    0.66166    0.00000  )
       13     O   15.9994   tau(   13) = (    0.00000    0.65871    1.61384  )
       14     O   15.9994   tau(   14) = (    0.00000    0.07187    2.07875  )

     Computing dynamical matrix for 
                    q = (   0.0000000   0.0000000   0.0000000 )

      9 Sym.Ops. (with q -> -q+G )


     G cutoff =  921.2890  (  15602 G-vectors)     FFT grid: ( 64, 81,200)
     G cutoff =  368.5156  (   3946 G-vectors)  smooth grid: ( 40, 54,128)
     number of k points=     4
                       cart. coord. in units 2pi/alat
        k(    1) = (   0.0000000   0.0000000   0.0000000), wk =   0.2222222
        k(    2) = (   0.0000000   0.2524549   0.0000000), wk =   0.4444444
        k(    3) = (   0.3333333   0.0000000   0.0000000), wk =   0.4444444
        k(    4) = (   0.3333333   0.2524549   0.0000000), wk =   0.8888889

     PseudoPot. # 1 for V  read from file:
     /home/mpicuntureo/pseudos/v.nc.upf
     MD5 check sum: 40fb93c06b4f9d8c28c5ccd071294a04
     Pseudo is Norm-conserving + core correction, Zval = 13.0
     Generated using ONCVPSP code by D. R. Hamann
     Using radial grid of 1536 points,  6 beta functions with: 
                l(1) =   0
                l(2) =   0
                l(3) =   1
                l(4) =   1
                l(5) =   2
                l(6) =   2

     PseudoPot. # 2 for O  read from file:
     /home/mpicuntureo/pseudos/o.nc.upf
     MD5 check sum: 3e3f909f7470e8921608ab6b1f57bbae
     Pseudo is Norm-conserving + core correction, Zval =  6.0
     Generated using ONCVPSP code by D. R. Hamann
     Using radial grid of  936 points,  5 beta functions with: 
                l(1) =   0
                l(2) =   0
                l(3) =   1
                l(4) =   1
                l(5) =   2

     Mode symmetry, D_2h (mmm)  point group:


     Electric field:
     Dielectric constant
     Born effective charges as d Force / d E
     Raman tensor


     Atomic displacements:
     There are   42 irreducible representations

     Representation     1      1 modes -  To be done

     Representation     2      1 modes -  To be done

     Representation     3      1 modes -  To be done

     Representation     4      1 modes -  To be done

     Representation     5      1 modes -  To be done

     Representation     6      1 modes -  To be done

     Representation     7      1 modes -  To be done

     Representation     8      1 modes -  To be done

     Representation     9      1 modes -  To be done

     Representation    10      1 modes -  To be done

     Representation    11      1 modes -  To be done

     Representation    12      1 modes -  To be done

     Representation    13      1 modes -  To be done

     Representation    14      1 modes -  To be done

     Representation    15      1 modes -  To be done

     Representation    16      1 modes -  To be done

     Representation    17      1 modes -  To be done

     Representation    18      1 modes -  To be done

     Representation    19      1 modes -  To be done

     Representation    20      1 modes -  To be done

     Representation    21      1 modes -  To be done

     Representation    22      1 modes -  To be done

     Representation    23      1 modes -  To be done

     Representation    24      1 modes -  To be done

     Representation    25      1 modes -  To be done

     Representation    26      1 modes -  To be done

     Representation    27      1 modes -  To be done

     Representation    28      1 modes -  To be done

     Representation    29      1 modes -  To be done

     Representation    30      1 modes -  To be done

     Representation    31      1 modes -  To be done

     Representation    32      1 modes -  To be done

     Representation    33      1 modes -  To be done

     Representation    34      1 modes -  To be done

     Representation    35      1 modes -  To be done

     Representation    36      1 modes -  To be done

     Representation    37      1 modes -  To be done

     Representation    38      1 modes -  To be done

     Representation    39      1 modes -  To be done

     Representation    40      1 modes -  To be done

     Representation    41      1 modes -  To be done

     Representation    42      1 modes -  To be done



     Alpha used in Ewald sum =   2.8000
     PHONON       :      3.26s CPU      3.39s WALL


     Electric Fields Calculation

      iter #   1 total cpu time :    53.8 secs   av.it.:  11.9
      thresh= 1.000E-02 alpha_mix =  0.500 |ddv_scf|^2 =  2.793E-07

      iter #   2 total cpu time :    75.0 secs   av.it.:  21.2
      thresh= 5.284E-05 alpha_mix =  0.500 |ddv_scf|^2 =  1.311E-06

      iter #   3 total cpu time :    92.7 secs   av.it.:  17.5
      thresh= 1.145E-04 alpha_mix =  0.500 |ddv_scf|^2 =  7.543E-08

      iter #   4 total cpu time :   111.5 secs   av.it.:  18.6
      thresh= 2.746E-05 alpha_mix =  0.500 |ddv_scf|^2 =  2.077E-09

      iter #   5 total cpu time :   132.4 secs   av.it.:  21.0
      thresh= 4.558E-06 alpha_mix =  0.500 |ddv_scf|^2 =  3.728E-09

      iter #   6 total cpu time :   151.8 secs   av.it.:  19.8
      thresh= 6.106E-06 alpha_mix =  0.500 |ddv_scf|^2 =  8.723E-11

      iter #   7 total cpu time :   173.1 secs   av.it.:  21.6
      thresh= 9.339E-07 alpha_mix =  0.500 |ddv_scf|^2 =  4.905E-10

      iter #   8 total cpu time :   191.0 secs   av.it.:  18.1
      thresh= 2.215E-06 alpha_mix =  0.500 |ddv_scf|^2 =  3.482E-11

      iter #   9 total cpu time :   210.8 secs   av.it.:  19.7
      thresh= 5.901E-07 alpha_mix =  0.500 |ddv_scf|^2 =  3.990E-11

      iter #  10 total cpu time :   230.2 secs   av.it.:  19.6
      thresh= 6.317E-07 alpha_mix =  0.500 |ddv_scf|^2 =  6.714E-12

      iter #  11 total cpu time :   250.1 secs   av.it.:  19.8
      thresh= 2.591E-07 alpha_mix =  0.500 |ddv_scf|^2 =  1.711E-13

      iter #  12 total cpu time :   270.7 secs   av.it.:  20.7
      thresh= 4.137E-08 alpha_mix =  0.500 |ddv_scf|^2 =  1.788E-13

      iter #  13 total cpu time :   289.5 secs   av.it.:  19.2
      thresh= 4.229E-08 alpha_mix =  0.500 |ddv_scf|^2 =  5.158E-14

      iter #  14 total cpu time :   308.5 secs   av.it.:  19.1
      thresh= 2.271E-08 alpha_mix =  0.500 |ddv_scf|^2 =  5.494E-15

     End of electric fields calculation

          Dielectric constant in cartesian axis 

          (       5.453156177       0.000000000       0.000000000 )
          (       0.000000000       3.276006571       0.000000000 )
          (       0.000000000       0.000000000       6.170796295 )

          Effective charges (d Force / dE) in cartesian axis

           atom      1   V  
      Ex  (        6.18981        0.00000        0.00000 )
      Ey  (        0.00000        2.83284       -0.01213 )
      Ez  (       -0.00000       -0.46639        6.55682 )
           atom      2   V  
      Ex  (        6.18981        0.00000       -0.00000 )
      Ey  (       -0.00000        2.83284       -0.01213 )
      Ez  (       -0.00000       -0.46639        6.55682 )
           atom      3   V  
      Ex  (        6.18981        0.00000       -0.00000 )
      Ey  (        0.00000        2.83284        0.01213 )
      Ez  (        0.00000        0.46639        6.55682 )
           atom      4   V  
      Ex  (        6.18981        0.00000        0.00000 )
      Ey  (       -0.00000        2.83284        0.01213 )
      Ez  (        0.00000        0.46639        6.55682 )
           atom      5   O  
      Ex  (       -5.12278        0.00000       -0.00000 )
      Ey  (        0.00000       -0.68327       -0.33071 )
      Ez  (        0.00000       -0.81946       -2.66520 )
           atom      6   O  
      Ex  (       -5.12278        0.00000        0.00000 )
      Ey  (       -0.00000       -0.68327       -0.33071 )
      Ez  (        0.00000       -0.81946       -2.66520 )
           atom      7   O  
      Ex  (       -5.12278        0.00000        0.00000 )
      Ey  (        0.00000       -0.68327        0.33071 )
      Ez  (        0.00000        0.81946       -2.66520 )
           atom      8   O  
      Ex  (       -5.12278        0.00000       -0.00000 )
      Ey  (       -0.00000       -0.68327        0.33071 )
      Ez  (        0.00000        0.81946       -2.66520 )
           atom      9   O  
      Ex  (       -0.51214        0.00000       -0.00000 )
      Ey  (        0.00000       -1.84923       -0.07561 )
      Ez  (        0.00000       -0.19449       -0.45153 )
           atom     10   O  
      Ex  (       -0.51214        0.00000        0.00000 )
      Ey  (        0.00000       -1.84923       -0.07561 )
      Ez  (        0.00000       -0.19449       -0.45153 )
           atom     11   O  
      Ex  (       -0.51214        0.00000        0.00000 )
      Ey  (        0.00000       -1.84923        0.07561 )
      Ez  (        0.00000        0.19449       -0.45153 )
           atom     12   O  
      Ex  (       -1.03646        0.00000       -0.00000 )
      Ey  (       -0.00000       -0.61095        0.00000 )
      Ez  (        0.00000        0.00000       -6.98225 )
           atom     13   O  
      Ex  (       -1.03646        0.00000       -0.00000 )
      Ey  (       -0.00000       -0.61095        0.00000 )
      Ez  (        0.00000        0.00000       -6.98225 )
           atom     14   O  
      Ex  (       -0.51214        0.00000        0.00000 )
      Ey  (        0.00000       -1.84923        0.07561 )
      Ez  (       -0.00000        0.19449       -0.45153 )

     Calling punch_plot_e
     Writing on file  drho                                                                                                                                                                                                                                                            

     Computing Pc [DH,Drho] |psi> 

     Derivative coefficient:  0.001000    Threshold: 1.00E-12
     Non-scf  u_k: avg # of iterations = 29.7
     Non-scf Du_k: avg # of iterations = 56.1

          Dielectric constant from finite-differences

          (       5.454115510       0.000000000       0.000000000 )
          (       0.000000000       3.279279058       0.000000000 )
          (       0.000000000       0.000000000       6.172059244 )

     Computing Second order response 


      iter #   1   av.it.:  17.9
      thresh= 1.000E-02 alpha_mix =  0.500 |ddv_scf|^2 =  2.172E-03


      iter #   2   av.it.:  18.6
      thresh= 4.660E-03 alpha_mix =  0.500 |ddv_scf|^2 =  1.371E-02


      iter #   3   av.it.:  14.8
      thresh= 1.000E-02 alpha_mix =  0.500 |ddv_scf|^2 =  5.950E-04


      iter #   4   av.it.:  15.5
      thresh= 2.439E-03 alpha_mix =  0.500 |ddv_scf|^2 =  1.744E-06


      iter #   5   av.it.:  18.9
      thresh= 1.321E-04 alpha_mix =  0.500 |ddv_scf|^2 =  5.041E-07


      iter #   6   av.it.:  19.5
      thresh= 7.100E-05 alpha_mix =  0.500 |ddv_scf|^2 =  2.756E-07


      iter #   7   av.it.:  16.5
      thresh= 5.250E-05 alpha_mix =  0.500 |ddv_scf|^2 =  5.201E-08


      iter #   8   av.it.:  20.0
      thresh= 2.281E-05 alpha_mix =  0.500 |ddv_scf|^2 =  2.326E-08


      iter #   9   av.it.:  16.8
      thresh= 1.525E-05 alpha_mix =  0.500 |ddv_scf|^2 =  3.700E-09


      iter #  10   av.it.:  18.9
      thresh= 6.083E-06 alpha_mix =  0.500 |ddv_scf|^2 =  6.460E-09


      iter #  11   av.it.:  16.3
      thresh= 8.038E-06 alpha_mix =  0.500 |ddv_scf|^2 =  4.036E-10


      iter #  12   av.it.:  18.8
      thresh= 2.009E-06 alpha_mix =  0.500 |ddv_scf|^2 =  2.486E-10


      iter #  13   av.it.:  17.9
      thresh= 1.577E-06 alpha_mix =  0.500 |ddv_scf|^2 =  2.702E-10


      iter #  14   av.it.:  17.9
      thresh= 1.644E-06 alpha_mix =  0.500 |ddv_scf|^2 =  2.184E-11


      iter #  15   av.it.:  18.0
      thresh= 4.673E-07 alpha_mix =  0.500 |ddv_scf|^2 =  1.017E-11


      iter #  16   av.it.:  19.5
      thresh= 3.189E-07 alpha_mix =  0.500 |ddv_scf|^2 =  2.536E-12


      iter #  17   av.it.:  18.2
      thresh= 1.592E-07 alpha_mix =  0.500 |ddv_scf|^2 =  3.359E-12


      iter #  18   av.it.:  18.8
      thresh= 1.833E-07 alpha_mix =  0.500 |ddv_scf|^2 =  1.659E-12


      iter #  19   av.it.:  16.7
      thresh= 1.288E-07 alpha_mix =  0.500 |ddv_scf|^2 =  4.244E-13


      iter #  20   av.it.:  18.8
      thresh= 6.515E-08 alpha_mix =  0.500 |ddv_scf|^2 =  2.967E-13


      iter #  21   av.it.:  17.7
      thresh= 5.447E-08 alpha_mix =  0.500 |ddv_scf|^2 =  2.892E-14


      iter #  22   av.it.:  18.0
      thresh= 1.701E-08 alpha_mix =  0.500 |ddv_scf|^2 =  3.201E-15

          Raman tensor (au^-1) in cartesian axis 

           atom      1
          (       0.000000000       0.479312315       0.998740411 )
          (       0.479312315       0.000000000       0.000000000 )
          (       0.998740411       0.000000000       0.000000000 )

          (       0.560825010       0.000000000       0.000000000 )
          (       0.000000000       0.327271291      -0.044515506 )
          (       0.000000000      -0.044515506       0.402840591 )

          (      -0.376173164       0.000000000       0.000000000 )
          (       0.000000000       0.062933863       0.047709524 )
          (       0.000000000       0.047709524       0.619013982 )

           atom      2
          (       0.000000000      -0.479312315      -0.998740411 )
          (      -0.479312315       0.000000000      -0.000000000 )
          (      -0.998740411      -0.000000000       0.000000000 )

          (      -0.560825010       0.000000000       0.000000000 )
          (       0.000000000      -0.327271291       0.044515506 )
          (       0.000000000       0.044515506      -0.402840591 )

          (       0.376173164       0.000000000       0.000000000 )
          (       0.000000000      -0.062933863      -0.047709524 )
          (       0.000000000      -0.047709524      -0.619013982 )

           atom      3
          (       0.000000000      -0.479312315       0.998740411 )
          (      -0.479312315      -0.000000000       0.000000000 )
          (       0.998740411       0.000000000       0.000000000 )

          (      -0.560825010       0.000000000       0.000000000 )
          (       0.000000000      -0.327271291      -0.044515506 )
          (       0.000000000      -0.044515506      -0.402840591 )

          (      -0.376173164       0.000000000      -0.000000000 )
          (       0.000000000       0.062933863      -0.047709524 )
          (      -0.000000000      -0.047709524       0.619013982 )

           atom      4
          (       0.000000000       0.479312315      -0.998740411 )
          (       0.479312315       0.000000000      -0.000000000 )
          (      -0.998740411      -0.000000000       0.000000000 )

          (       0.560825010       0.000000000       0.000000000 )
          (       0.000000000       0.327271291       0.044515506 )
          (       0.000000000       0.044515506       0.402840591 )

          (       0.376173164       0.000000000       0.000000000 )
          (       0.000000000      -0.062933863       0.047709524 )
          (       0.000000000       0.047709524      -0.619013982 )

           atom      5
          (       0.000000000      -0.305223628      -0.647822467 )
          (      -0.305223628       0.000000000       0.000000000 )
          (      -0.647822467       0.000000000       0.000000000 )

          (      -0.173699521       0.000000000       0.000000000 )
          (       0.000000000       0.041386671       0.062799394 )
          (       0.000000000       0.062799394       0.205971787 )

          (      -0.370627573       0.000000000       0.000000000 )
          (       0.000000000      -0.009693652       0.152046752 )
          (       0.000000000       0.152046752      -0.125120068 )

           atom      6
          (       0.000000000       0.305223628       0.647822467 )
          (       0.305223628       0.000000000       0.000000000 )
          (       0.647822467       0.000000000       0.000000000 )

          (       0.173699521       0.000000000       0.000000000 )
          (       0.000000000      -0.041386671      -0.062799394 )
          (       0.000000000      -0.062799394      -0.205971787 )

          (       0.370627573       0.000000000      -0.000000000 )
          (       0.000000000       0.009693652      -0.152046752 )
          (      -0.000000000      -0.152046752       0.125120068 )

           atom      7
          (       0.000000000       0.305223628      -0.647822467 )
          (       0.305223628       0.000000000       0.000000000 )
          (      -0.647822467       0.000000000       0.000000000 )

          (       0.173699521       0.000000000       0.000000000 )
          (       0.000000000      -0.041386671       0.062799394 )
          (       0.000000000       0.062799394      -0.205971787 )

          (      -0.370627573       0.000000000      -0.000000000 )
          (       0.000000000      -0.009693652      -0.152046752 )
          (      -0.000000000      -0.152046752      -0.125120068 )

           atom      8
          (       0.000000000      -0.305223628       0.647822467 )
          (      -0.305223628      -0.000000000       0.000000000 )
          (       0.647822467       0.000000000       0.000000000 )

          (      -0.173699521       0.000000000       0.000000000 )
          (       0.000000000       0.041386671      -0.062799394 )
          (       0.000000000      -0.062799394       0.205971787 )

          (       0.370627573       0.000000000       0.000000000 )
          (       0.000000000       0.009693652       0.152046752 )
          (       0.000000000       0.152046752       0.125120068 )

           atom      9
          (       0.000000000      -0.147969085      -0.005045214 )
          (      -0.147969085       0.000000000       0.000000000 )
          (      -0.005045214       0.000000000       0.000000000 )

          (      -0.561800929       0.000000000      -0.000000000 )
          (       0.000000000      -0.555877794      -0.051742708 )
          (      -0.000000000      -0.051742708      -0.524573223 )

          (      -0.007422975       0.000000000       0.000000000 )
          (       0.000000000      -0.042735483      -0.123934974 )
          (       0.000000000      -0.123934974       0.105553507 )

           atom     10
          (       0.000000000       0.147969085       0.005045214 )
          (       0.147969085       0.000000000       0.000000000 )
          (       0.005045214       0.000000000       0.000000000 )

          (       0.561800929      -0.000000000       0.000000000 )
          (      -0.000000000       0.555877794       0.051742708 )
          (       0.000000000       0.051742708       0.524573223 )

          (       0.007422975       0.000000000       0.000000000 )
          (       0.000000000       0.042735483       0.123934974 )
          (       0.000000000       0.123934974      -0.105553507 )

           atom     11
          (       0.000000000       0.147969085      -0.005045214 )
          (       0.147969085       0.000000000       0.000000000 )
          (      -0.005045214       0.000000000       0.000000000 )

          (       0.561800929       0.000000000      -0.000000000 )
          (       0.000000000       0.555877794      -0.051742708 )
          (      -0.000000000      -0.051742708       0.524573223 )

          (      -0.007422975       0.000000000       0.000000000 )
          (       0.000000000      -0.042735483       0.123934974 )
          (       0.000000000       0.123934974       0.105553507 )

           atom     12
          (       0.000000000      -0.021387194       0.000000000 )
          (      -0.021387194       0.000000000      -0.000000000 )
          (       0.000000000      -0.000000000       0.000000000 )

          (      -0.075456090      -0.000000000       0.000000000 )
          (      -0.000000000      -0.094770097       0.000000000 )
          (       0.000000000       0.000000000      -0.157851851 )

          (       0.000000000       0.000000000       0.000000000 )
          (       0.000000000       0.000000000      -0.053386588 )
          (       0.000000000      -0.053386588       0.000000000 )

           atom     13
          (      -0.000000000       0.021387194       0.000000000 )
          (       0.021387194      -0.000000000       0.000000000 )
          (       0.000000000       0.000000000       0.000000000 )

          (       0.075456090       0.000000000       0.000000000 )
          (       0.000000000       0.094770097       0.000000000 )
          (       0.000000000       0.000000000       0.157851851 )

          (       0.000000000       0.000000000       0.000000000 )
          (       0.000000000       0.000000000       0.053386588 )
          (       0.000000000       0.053386588       0.000000000 )

           atom     14
          (       0.000000000      -0.147969085       0.005045214 )
          (      -0.147969085       0.000000000       0.000000000 )
          (       0.005045214       0.000000000       0.000000000 )

          (      -0.561800929       0.000000000       0.000000000 )
          (       0.000000000      -0.555877794       0.051742708 )
          (       0.000000000       0.051742708      -0.524573223 )

          (       0.007422975       0.000000000       0.000000000 )
          (       0.000000000       0.042735483      -0.123934974 )
          (       0.000000000      -0.123934974      -0.105553507 )


     Raman tensor (A^2)

     atom #    1    pol.  1
      0.000000000000E+00      0.139538648375E+02      0.290755907323E+02
      0.139538648375E+02      0.144839269179E-16      0.000000000000E+00
      0.290755907323E+02      0.000000000000E+00      0.000000000000E+00
     atom #    1    pol.  2
      0.163268836057E+02      0.000000000000E+00      0.000000000000E+00
      0.000000000000E+00      0.952760698969E+01     -0.129594699462E+01
      0.000000000000E+00     -0.129594699462E+01      0.117276001129E+02
     atom #    1    pol.  3
     -0.109512510322E+02      0.000000000000E+00      0.775614508129E-16
      0.000000000000E+00      0.183214699604E+01      0.138893208368E+01
      0.775614508129E-16      0.138893208368E+01      0.180208961125E+02
     atom #    2    pol.  1
      0.000000000000E+00     -0.139538648375E+02     -0.290755907323E+02
     -0.139538648375E+02      0.000000000000E+00     -0.237001517424E-16
     -0.290755907323E+02     -0.237001517424E-16      0.000000000000E+00
     atom #    2    pol.  2
     -0.163268836057E+02      0.000000000000E+00      0.000000000000E+00
      0.000000000000E+00     -0.952760698969E+01      0.129594699462E+01
      0.000000000000E+00      0.129594699462E+01     -0.117276001129E+02
     atom #    2    pol.  3
      0.109512510322E+02      0.000000000000E+00      0.000000000000E+00
      0.000000000000E+00     -0.183214699604E+01     -0.138893208368E+01
      0.000000000000E+00     -0.138893208368E+01     -0.180208961125E+02
     atom #    3    pol.  1
      0.000000000000E+00     -0.139538648375E+02      0.290755907323E+02
     -0.139538648375E+02     -0.144839269179E-16      0.000000000000E+00
      0.290755907323E+02      0.000000000000E+00      0.000000000000E+00
     atom #    3    pol.  2
     -0.163268836057E+02      0.000000000000E+00      0.000000000000E+00
      0.000000000000E+00     -0.952760698969E+01     -0.129594699462E+01
      0.000000000000E+00     -0.129594699462E+01     -0.117276001129E+02
     atom #    3    pol.  3
     -0.109512510322E+02      0.000000000000E+00     -0.775614508129E-16
      0.000000000000E+00      0.183214699604E+01     -0.138893208368E+01
     -0.775614508129E-16     -0.138893208368E+01      0.180208961125E+02
     atom #    4    pol.  1
      0.000000000000E+00      0.139538648375E+02     -0.290755907323E+02
      0.139538648375E+02      0.000000000000E+00     -0.237001517424E-16
     -0.290755907323E+02     -0.237001517424E-16      0.000000000000E+00
     atom #    4    pol.  2
      0.163268836057E+02      0.000000000000E+00      0.000000000000E+00
      0.000000000000E+00      0.952760698969E+01      0.129594699462E+01
      0.000000000000E+00      0.129594699462E+01      0.117276001129E+02
     atom #    4    pol.  3
      0.109512510322E+02      0.000000000000E+00      0.000000000000E+00
      0.000000000000E+00     -0.183214699604E+01      0.138893208368E+01
      0.000000000000E+00      0.138893208368E+01     -0.180208961125E+02
     atom #    5    pol.  1
      0.000000000000E+00     -0.888574968701E+01     -0.188595762185E+02
     -0.888574968701E+01      0.000000000000E+00      0.000000000000E+00
     -0.188595762185E+02      0.000000000000E+00      0.000000000000E+00
     atom #    5    pol.  2
     -0.505678564291E+01      0.000000000000E+00      0.000000000000E+00
      0.000000000000E+00      0.120485953137E+01      0.182823229556E+01
      0.000000000000E+00      0.182823229556E+01      0.599630426997E+01
     atom #    5    pol.  3
     -0.107898063423E+02      0.118500758712E-16      0.387807254065E-16
      0.118500758712E-16     -0.282204127467E+00      0.442642461071E+01
      0.387807254065E-16      0.442642461071E+01     -0.364252796413E+01
     atom #    6    pol.  1
      0.000000000000E+00      0.888574968701E+01      0.188595762185E+02
      0.888574968701E+01      0.579357076718E-16      0.000000000000E+00
      0.188595762185E+02      0.000000000000E+00      0.000000000000E+00
     atom #    6    pol.  2
      0.505678564291E+01      0.000000000000E+00      0.000000000000E+00
      0.000000000000E+00     -0.120485953137E+01     -0.182823229556E+01
      0.000000000000E+00     -0.182823229556E+01     -0.599630426997E+01
     atom #    6    pol.  3
      0.107898063423E+02      0.000000000000E+00     -0.387807254065E-16
      0.000000000000E+00      0.282204127467E+00     -0.442642461071E+01
     -0.387807254065E-16     -0.442642461071E+01      0.364252796413E+01
     atom #    7    pol.  1
      0.000000000000E+00      0.888574968701E+01     -0.188595762185E+02
      0.888574968701E+01      0.000000000000E+00      0.000000000000E+00
     -0.188595762185E+02      0.000000000000E+00      0.000000000000E+00
     atom #    7    pol.  2
      0.505678564291E+01      0.000000000000E+00      0.000000000000E+00
      0.000000000000E+00     -0.120485953137E+01      0.182823229556E+01
      0.000000000000E+00      0.182823229556E+01     -0.599630426997E+01
     atom #    7    pol.  3
     -0.107898063423E+02      0.118500758712E-16     -0.387807254065E-16
      0.118500758712E-16     -0.282204127467E+00     -0.442642461071E+01
     -0.387807254065E-16     -0.442642461071E+01     -0.364252796413E+01
     atom #    8    pol.  1
      0.000000000000E+00     -0.888574968701E+01      0.188595762185E+02
     -0.888574968701E+01     -0.579357076718E-16      0.000000000000E+00
      0.188595762185E+02      0.000000000000E+00      0.000000000000E+00
     atom #    8    pol.  2
     -0.505678564291E+01      0.000000000000E+00      0.000000000000E+00
      0.000000000000E+00      0.120485953137E+01     -0.182823229556E+01
      0.000000000000E+00     -0.182823229556E+01      0.599630426997E+01
     atom #    8    pol.  3
      0.107898063423E+02      0.000000000000E+00      0.387807254065E-16
      0.000000000000E+00      0.282204127467E+00      0.442642461071E+01
      0.387807254065E-16      0.442642461071E+01      0.364252796413E+01
     atom #    9    pol.  1
      0.000000000000E+00     -0.430771449130E+01     -0.146877582476E+00
     -0.430771449130E+01      0.000000000000E+00      0.000000000000E+00
     -0.146877582476E+00      0.000000000000E+00      0.000000000000E+00
     atom #    9    pol.  2
     -0.163552948283E+02      0.000000000000E+00     -0.118500758712E-16
      0.000000000000E+00     -0.161828589789E+02     -0.150634717203E+01
     -0.118500758712E-16     -0.150634717203E+01     -0.152715121716E+02
     atom #    9    pol.  3
     -0.216099579550E+00      0.000000000000E+00      0.000000000000E+00
      0.000000000000E+00     -0.124412648986E+01     -0.360802720808E+01
      0.000000000000E+00     -0.360802720808E+01      0.307290116381E+01
     atom #   10    pol.  1
      0.000000000000E+00      0.430771449130E+01      0.146877582476E+00
      0.430771449130E+01      0.000000000000E+00      0.000000000000E+00
      0.146877582476E+00      0.000000000000E+00      0.000000000000E+00
     atom #   10    pol.  2
      0.163552948283E+02     -0.579357076718E-16      0.118500758712E-16
     -0.579357076718E-16      0.161828589789E+02      0.150634717203E+01
      0.118500758712E-16      0.150634717203E+01      0.152715121716E+02
     atom #   10    pol.  3
      0.216099579550E+00      0.000000000000E+00      0.000000000000E+00
      0.000000000000E+00      0.124412648986E+01      0.360802720808E+01
      0.000000000000E+00      0.360802720808E+01     -0.307290116381E+01
     atom #   11    pol.  1
      0.000000000000E+00      0.430771449130E+01     -0.146877582476E+00
      0.430771449130E+01      0.000000000000E+00      0.000000000000E+00
     -0.146877582476E+00      0.000000000000E+00      0.000000000000E+00
     atom #   11    pol.  2
      0.163552948283E+02      0.000000000000E+00     -0.118500758712E-16
      0.000000000000E+00      0.161828589789E+02     -0.150634717203E+01
     -0.118500758712E-16     -0.150634717203E+01      0.152715121716E+02
     atom #   11    pol.  3
     -0.216099579550E+00      0.000000000000E+00      0.000000000000E+00
      0.000000000000E+00     -0.124412648986E+01      0.360802720808E+01
      0.000000000000E+00      0.360802720808E+01      0.307290116381E+01
     atom #   12    pol.  1
      0.252508606076E-16     -0.622629542363E+00      0.000000000000E+00
     -0.622629542363E+00      0.144839269179E-16     -0.180817808093E-21
      0.000000000000E+00     -0.180817808093E-21      0.000000000000E+00
     atom #   12    pol.  2
     -0.219669732522E+01     -0.289678538359E-16      0.000000000000E+00
     -0.289678538359E-16     -0.275897172153E+01      0.000000000000E+00
      0.000000000000E+00      0.000000000000E+00     -0.459542416391E+01
     atom #   12    pol.  3
      0.000000000000E+00      0.000000000000E+00      0.000000000000E+00
      0.000000000000E+00      0.000000000000E+00     -0.155420422704E+01
      0.000000000000E+00     -0.155420422704E+01      0.000000000000E+00
     atom #   13    pol.  1
     -0.252508606076E-16      0.622629542363E+00      0.119373007176E-21
      0.622629542363E+00     -0.144839269179E-16      0.000000000000E+00
      0.119373007176E-21      0.000000000000E+00      0.000000000000E+00
     atom #   13    pol.  2
      0.219669732522E+01      0.289678538359E-16      0.000000000000E+00
      0.289678538359E-16      0.275897172153E+01      0.000000000000E+00
      0.000000000000E+00      0.000000000000E+00      0.459542416391E+01
     atom #   13    pol.  3
      0.000000000000E+00      0.361635616186E-21      0.000000000000E+00
      0.361635616186E-21      0.000000000000E+00      0.155420422704E+01
      0.000000000000E+00      0.155420422704E+01      0.733340836845E-21
     atom #   14    pol.  1
      0.000000000000E+00     -0.430771449130E+01      0.146877582476E+00
     -0.430771449130E+01      0.000000000000E+00      0.000000000000E+00
      0.146877582476E+00      0.000000000000E+00      0.000000000000E+00
     atom #   14    pol.  2
     -0.163552948283E+02      0.579357076718E-16      0.118500758712E-16
      0.579357076718E-16     -0.161828589789E+02      0.150634717203E+01
      0.118500758712E-16      0.150634717203E+01     -0.152715121716E+02
     atom #   14    pol.  3
      0.216099579550E+00      0.000000000000E+00      0.000000000000E+00
      0.000000000000E+00      0.124412648986E+01     -0.360802720808E+01
      0.000000000000E+00     -0.360802720808E+01     -0.307290116381E+01


     Representation #   1 mode #   1

     Self-consistent Calculation

      iter #   1 total cpu time :  1802.7 secs   av.it.:   8.5
      thresh= 1.000E-02 alpha_mix =  0.500 |ddv_scf|^2 =  6.430E-08

      iter #   2 total cpu time :  1809.6 secs   av.it.:  20.2
      thresh= 2.536E-05 alpha_mix =  0.500 |ddv_scf|^2 =  1.623E-08

      iter #   3 total cpu time :  1816.8 secs   av.it.:  21.2
      thresh= 1.274E-05 alpha_mix =  0.500 |ddv_scf|^2 =  7.125E-08

      iter #   4 total cpu time :  1823.2 secs   av.it.:  18.8
      thresh= 2.669E-05 alpha_mix =  0.500 |ddv_scf|^2 =  3.398E-09

      iter #   5 total cpu time :  1829.9 secs   av.it.:  19.5
      thresh= 5.829E-06 alpha_mix =  0.500 |ddv_scf|^2 =  7.189E-11

      iter #   6 total cpu time :  1836.6 secs   av.it.:  19.5
      thresh= 8.479E-07 alpha_mix =  0.500 |ddv_scf|^2 =  3.199E-11

      iter #   7 total cpu time :  1843.3 secs   av.it.:  19.8
      thresh= 5.656E-07 alpha_mix =  0.500 |ddv_scf|^2 =  2.351E-12

      iter #   8 total cpu time :  1850.1 secs   av.it.:  20.2
      thresh= 1.533E-07 alpha_mix =  0.500 |ddv_scf|^2 =  1.142E-13

      iter #   9 total cpu time :  1857.2 secs   av.it.:  20.8
      thresh= 3.379E-08 alpha_mix =  0.500 |ddv_scf|^2 =  1.214E-13

      iter #  10 total cpu time :  1863.7 secs   av.it.:  19.2
      thresh= 3.485E-08 alpha_mix =  0.500 |ddv_scf|^2 =  2.161E-14

      iter #  11 total cpu time :  1870.4 secs   av.it.:  19.5
      thresh= 1.470E-08 alpha_mix =  0.500 |ddv_scf|^2 =  5.403E-15

     End of self-consistent calculation

     Convergence has been achieved 


     Representation #   2 mode #   2

     Self-consistent Calculation

      iter #   1 total cpu time :  1874.7 secs   av.it.:   9.5
      thresh= 1.000E-02 alpha_mix =  0.500 |ddv_scf|^2 =  3.580E-07

      iter #   2 total cpu time :  1881.8 secs   av.it.:  21.0
      thresh= 5.984E-05 alpha_mix =  0.500 |ddv_scf|^2 =  1.867E-06

      iter #   3 total cpu time :  1888.3 secs   av.it.:  18.8
      thresh= 1.366E-04 alpha_mix =  0.500 |ddv_scf|^2 =  7.592E-08

      iter #   4 total cpu time :  1894.6 secs   av.it.:  18.5
      thresh= 2.755E-05 alpha_mix =  0.500 |ddv_scf|^2 =  8.784E-09

      iter #   5 total cpu time :  1901.2 secs   av.it.:  19.0
      thresh= 9.372E-06 alpha_mix =  0.500 |ddv_scf|^2 =  2.125E-10

      iter #   6 total cpu time :  1908.0 secs   av.it.:  19.8
      thresh= 1.458E-06 alpha_mix =  0.500 |ddv_scf|^2 =  3.341E-11

      iter #   7 total cpu time :  1914.8 secs   av.it.:  19.8
      thresh= 5.780E-07 alpha_mix =  0.500 |ddv_scf|^2 =  2.924E-12

      iter #   8 total cpu time :  1921.5 secs   av.it.:  19.5
      thresh= 1.710E-07 alpha_mix =  0.500 |ddv_scf|^2 =  9.511E-13

      iter #   9 total cpu time :  1928.5 secs   av.it.:  20.5
      thresh= 9.752E-08 alpha_mix =  0.500 |ddv_scf|^2 =  1.171E-12

      iter #  10 total cpu time :  1934.9 secs   av.it.:  18.5
      thresh= 1.082E-07 alpha_mix =  0.500 |ddv_scf|^2 =  9.897E-15

     End of self-consistent calculation

     Convergence has been achieved 


     Representation #   3 mode #   3

     Self-consistent Calculation

      iter #   1 total cpu time :  1939.2 secs   av.it.:   9.5
      thresh= 1.000E-02 alpha_mix =  0.500 |ddv_scf|^2 =  3.413E-07

      iter #   2 total cpu time :  1946.1 secs   av.it.:  20.8
      thresh= 5.842E-05 alpha_mix =  0.500 |ddv_scf|^2 =  4.392E-07

      iter #   3 total cpu time :  1953.0 secs   av.it.:  19.8
      thresh= 6.627E-05 alpha_mix =  0.500 |ddv_scf|^2 =  2.512E-07

      iter #   4 total cpu time :  1959.4 secs   av.it.:  18.5
      thresh= 5.012E-05 alpha_mix =  0.500 |ddv_scf|^2 =  2.011E-08

      iter #   5 total cpu time :  1965.9 secs   av.it.:  19.0
      thresh= 1.418E-05 alpha_mix =  0.500 |ddv_scf|^2 =  6.247E-10

      iter #   6 total cpu time :  1972.6 secs   av.it.:  19.5
      thresh= 2.499E-06 alpha_mix =  0.500 |ddv_scf|^2 =  1.137E-10

      iter #   7 total cpu time :  1979.4 secs   av.it.:  19.8
      thresh= 1.066E-06 alpha_mix =  0.500 |ddv_scf|^2 =  2.545E-12

      iter #   8 total cpu time :  1986.3 secs   av.it.:  20.5
      thresh= 1.595E-07 alpha_mix =  0.500 |ddv_scf|^2 =  9.720E-13

      iter #   9 total cpu time :  1993.2 secs   av.it.:  20.2
      thresh= 9.859E-08 alpha_mix =  0.500 |ddv_scf|^2 =  6.844E-13

      iter #  10 total cpu time :  1999.7 secs   av.it.:  18.8
      thresh= 8.273E-08 alpha_mix =  0.500 |ddv_scf|^2 =  3.827E-14

      iter #  11 total cpu time :  2006.2 secs   av.it.:  19.0
      thresh= 1.956E-08 alpha_mix =  0.500 |ddv_scf|^2 =  2.179E-15

     End of self-consistent calculation

     Convergence has been achieved 


     Representation #   4 mode #   4

     Self-consistent Calculation

      iter #   1 total cpu time :  2011.1 secs   av.it.:  11.8
      thresh= 1.000E-02 alpha_mix =  0.500 |ddv_scf|^2 =  2.994E-06

      iter #   2 total cpu time :  2018.1 secs   av.it.:  20.5
      thresh= 1.730E-04 alpha_mix =  0.500 |ddv_scf|^2 =  4.870E-06

      iter #   3 total cpu time :  2024.7 secs   av.it.:  19.5
      thresh= 2.207E-04 alpha_mix =  0.500 |ddv_scf|^2 =  5.667E-07

      iter #   4 total cpu time :  2031.2 secs   av.it.:  18.8
      thresh= 7.528E-05 alpha_mix =  0.500 |ddv_scf|^2 =  1.010E-07

      iter #   5 total cpu time :  2037.8 secs   av.it.:  19.0
      thresh= 3.177E-05 alpha_mix =  0.500 |ddv_scf|^2 =  1.775E-09

      iter #   6 total cpu time :  2044.7 secs   av.it.:  19.8
      thresh= 4.213E-06 alpha_mix =  0.500 |ddv_scf|^2 =  3.848E-10

      iter #   7 total cpu time :  2051.6 secs   av.it.:  20.2
      thresh= 1.962E-06 alpha_mix =  0.500 |ddv_scf|^2 =  1.488E-11

      iter #   8 total cpu time :  2058.6 secs   av.it.:  20.5
      thresh= 3.858E-07 alpha_mix =  0.500 |ddv_scf|^2 =  3.290E-13

      iter #   9 total cpu time :  2065.5 secs   av.it.:  20.5
      thresh= 5.736E-08 alpha_mix =  0.500 |ddv_scf|^2 =  3.522E-14

      iter #  10 total cpu time :  2072.6 secs   av.it.:  20.8
      thresh= 1.877E-08 alpha_mix =  0.500 |ddv_scf|^2 =  4.573E-14

      iter #  11 total cpu time :  2079.2 secs   av.it.:  19.0
      thresh= 2.139E-08 alpha_mix =  0.500 |ddv_scf|^2 =  1.432E-15

     End of self-consistent calculation

     Convergence has been achieved 


     Representation #   5 mode #   5

     Self-consistent Calculation

      iter #   1 total cpu time :  2083.4 secs   av.it.:   9.5
      thresh= 1.000E-02 alpha_mix =  0.500 |ddv_scf|^2 =  3.739E-07

      iter #   2 total cpu time :  2090.4 secs   av.it.:  20.5
      thresh= 6.114E-05 alpha_mix =  0.500 |ddv_scf|^2 =  4.225E-07

      iter #   3 total cpu time :  2097.1 secs   av.it.:  19.8
      thresh= 6.500E-05 alpha_mix =  0.500 |ddv_scf|^2 =  1.404E-07

      iter #   4 total cpu time :  2103.7 secs   av.it.:  18.8
      thresh= 3.747E-05 alpha_mix =  0.500 |ddv_scf|^2 =  2.499E-08

      iter #   5 total cpu time :  2110.2 secs   av.it.:  19.0
      thresh= 1.581E-05 alpha_mix =  0.500 |ddv_scf|^2 =  7.261E-10

      iter #   6 total cpu time :  2117.0 secs   av.it.:  19.5
      thresh= 2.695E-06 alpha_mix =  0.500 |ddv_scf|^2 =  1.387E-10

      iter #   7 total cpu time :  2123.8 secs   av.it.:  19.8
      thresh= 1.178E-06 alpha_mix =  0.500 |ddv_scf|^2 =  2.456E-12

      iter #   8 total cpu time :  2130.7 secs   av.it.:  20.2
      thresh= 1.567E-07 alpha_mix =  0.500 |ddv_scf|^2 =  8.517E-13

      iter #   9 total cpu time :  2137.5 secs   av.it.:  19.8
      thresh= 9.229E-08 alpha_mix =  0.500 |ddv_scf|^2 =  6.326E-14

      iter #  10 total cpu time :  2144.3 secs   av.it.:  19.8
      thresh= 2.515E-08 alpha_mix =  0.500 |ddv_scf|^2 =  7.659E-14

      iter #  11 total cpu time :  2150.7 secs   av.it.:  18.8
      thresh= 2.768E-08 alpha_mix =  0.500 |ddv_scf|^2 =  4.525E-15

     End of self-consistent calculation

     Convergence has been achieved 


     Representation #   6 mode #   6

     Self-consistent Calculation

      iter #   1 total cpu time :  2155.6 secs   av.it.:  11.5
      thresh= 1.000E-02 alpha_mix =  0.500 |ddv_scf|^2 =  1.435E-06

      iter #   2 total cpu time :  2162.6 secs   av.it.:  20.8
      thresh= 1.198E-04 alpha_mix =  0.500 |ddv_scf|^2 =  4.962E-06

      iter #   3 total cpu time :  2169.0 secs   av.it.:  18.8
      thresh= 2.227E-04 alpha_mix =  0.500 |ddv_scf|^2 =  4.156E-07

      iter #   4 total cpu time :  2175.7 secs   av.it.:  19.5
      thresh= 6.447E-05 alpha_mix =  0.500 |ddv_scf|^2 =  5.804E-08

      iter #   5 total cpu time :  2182.3 secs   av.it.:  19.5
      thresh= 2.409E-05 alpha_mix =  0.500 |ddv_scf|^2 =  1.465E-09

      iter #   6 total cpu time :  2189.1 secs   av.it.:  19.5
      thresh= 3.827E-06 alpha_mix =  0.500 |ddv_scf|^2 =  3.611E-10

      iter #   7 total cpu time :  2195.9 secs   av.it.:  19.8
      thresh= 1.900E-06 alpha_mix =  0.500 |ddv_scf|^2 =  1.544E-11

      iter #   8 total cpu time :  2202.5 secs   av.it.:  19.2
      thresh= 3.929E-07 alpha_mix =  0.500 |ddv_scf|^2 =  5.172E-13

      iter #   9 total cpu time :  2209.1 secs   av.it.:  19.0
      thresh= 7.191E-08 alpha_mix =  0.500 |ddv_scf|^2 =  5.078E-14

      iter #  10 total cpu time :  2216.0 secs   av.it.:  20.2
      thresh= 2.253E-08 alpha_mix =  0.500 |ddv_scf|^2 =  9.938E-15

     End of self-consistent calculation

     Convergence has been achieved 


     Representation #   7 mode #   7

     Self-consistent Calculation

      iter #   1 total cpu time :  2219.9 secs   av.it.:   8.5
      thresh= 1.000E-02 alpha_mix =  0.500 |ddv_scf|^2 =  1.095E-07

      iter #   2 total cpu time :  2226.8 secs   av.it.:  20.5
      thresh= 3.309E-05 alpha_mix =  0.500 |ddv_scf|^2 =  8.139E-08

      iter #   3 total cpu time :  2233.8 secs   av.it.:  20.2
      thresh= 2.853E-05 alpha_mix =  0.500 |ddv_scf|^2 =  1.447E-07

      iter #   4 total cpu time :  2240.2 secs   av.it.:  18.5
      thresh= 3.804E-05 alpha_mix =  0.500 |ddv_scf|^2 =  5.704E-09

      iter #   5 total cpu time :  2246.9 secs   av.it.:  19.8
      thresh= 7.553E-06 alpha_mix =  0.500 |ddv_scf|^2 =  1.298E-10

      iter #   6 total cpu time :  2253.7 secs   av.it.:  19.8
      thresh= 1.139E-06 alpha_mix =  0.500 |ddv_scf|^2 =  6.062E-11

      iter #   7 total cpu time :  2260.4 secs   av.it.:  19.5
      thresh= 7.786E-07 alpha_mix =  0.500 |ddv_scf|^2 =  3.734E-12

      iter #   8 total cpu time :  2267.2 secs   av.it.:  19.8
      thresh= 1.932E-07 alpha_mix =  0.500 |ddv_scf|^2 =  2.790E-13

      iter #   9 total cpu time :  2274.0 secs   av.it.:  19.8
      thresh= 5.282E-08 alpha_mix =  0.500 |ddv_scf|^2 =  4.006E-14

      iter #  10 total cpu time :  2280.9 secs   av.it.:  20.0
      thresh= 2.002E-08 alpha_mix =  0.500 |ddv_scf|^2 =  2.152E-14

      iter #  11 total cpu time :  2287.7 secs   av.it.:  19.8
      thresh= 1.467E-08 alpha_mix =  0.500 |ddv_scf|^2 =  1.475E-15

     End of self-consistent calculation

     Convergence has been achieved 


     Representation #   8 mode #   8

     Self-consistent Calculation

      iter #   1 total cpu time :  2291.9 secs   av.it.:   9.0
      thresh= 1.000E-02 alpha_mix =  0.500 |ddv_scf|^2 =  1.083E-07

      iter #   2 total cpu time :  2298.5 secs   av.it.:  19.2
      thresh= 3.292E-05 alpha_mix =  0.500 |ddv_scf|^2 =  1.095E-09

      iter #   3 total cpu time :  2305.3 secs   av.it.:  20.0
      thresh= 3.309E-06 alpha_mix =  0.500 |ddv_scf|^2 =  6.604E-11

      iter #   4 total cpu time :  2312.1 secs   av.it.:  20.0
      thresh= 8.127E-07 alpha_mix =  0.500 |ddv_scf|^2 =  3.692E-12

      iter #   5 total cpu time :  2319.0 secs   av.it.:  20.2
      thresh= 1.921E-07 alpha_mix =  0.500 |ddv_scf|^2 =  2.419E-14

      iter #   6 total cpu time :  2326.0 secs   av.it.:  20.8
      thresh= 1.555E-08 alpha_mix =  0.500 |ddv_scf|^2 =  8.413E-16

     End of self-consistent calculation

     Convergence has been achieved 


     Representation #   9 mode #   9

     Self-consistent Calculation

      iter #   1 total cpu time :  2329.8 secs   av.it.:   7.5
      thresh= 1.000E-02 alpha_mix =  0.500 |ddv_scf|^2 =  5.657E-08

      iter #   2 total cpu time :  2336.3 secs   av.it.:  18.8
      thresh= 2.378E-05 alpha_mix =  0.500 |ddv_scf|^2 =  2.051E-09

      iter #   3 total cpu time :  2342.9 secs   av.it.:  19.2
      thresh= 4.529E-06 alpha_mix =  0.500 |ddv_scf|^2 =  2.977E-11

      iter #   4 total cpu time :  2349.4 secs   av.it.:  18.8
      thresh= 5.457E-07 alpha_mix =  0.500 |ddv_scf|^2 =  3.467E-12

      iter #   5 total cpu time :  2356.1 secs   av.it.:  19.8
      thresh= 1.862E-07 alpha_mix =  0.500 |ddv_scf|^2 =  4.035E-14

      iter #   6 total cpu time :  2362.9 secs   av.it.:  20.0
      thresh= 2.009E-08 alpha_mix =  0.500 |ddv_scf|^2 =  7.999E-16

     End of self-consistent calculation

     Convergence has been achieved 


     Representation #  10 mode #  10

     Self-consistent Calculation

      iter #   1 total cpu time :  2367.5 secs   av.it.:  10.5
      thresh= 1.000E-02 alpha_mix =  0.500 |ddv_scf|^2 =  4.055E-07

      iter #   2 total cpu time :  2374.2 secs   av.it.:  19.2
      thresh= 6.368E-05 alpha_mix =  0.500 |ddv_scf|^2 =  1.837E-09

      iter #   3 total cpu time :  2381.0 secs   av.it.:  19.8
      thresh= 4.286E-06 alpha_mix =  0.500 |ddv_scf|^2 =  2.143E-10

      iter #   4 total cpu time :  2387.9 secs   av.it.:  20.0
      thresh= 1.464E-06 alpha_mix =  0.500 |ddv_scf|^2 =  4.143E-12

      iter #   5 total cpu time :  2394.9 secs   av.it.:  20.5
      thresh= 2.035E-07 alpha_mix =  0.500 |ddv_scf|^2 =  1.519E-13

      iter #   6 total cpu time :  2402.0 secs   av.it.:  20.5
      thresh= 3.898E-08 alpha_mix =  0.500 |ddv_scf|^2 =  2.510E-15

     End of self-consistent calculation

     Convergence has been achieved 


     Representation #  11 mode #  11

     Self-consistent Calculation

      iter #   1 total cpu time :  2406.0 secs   av.it.:   8.5
      thresh= 1.000E-02 alpha_mix =  0.500 |ddv_scf|^2 =  6.161E-08

      iter #   2 total cpu time :  2412.6 secs   av.it.:  19.0
      thresh= 2.482E-05 alpha_mix =  0.500 |ddv_scf|^2 =  2.143E-09

      iter #   3 total cpu time :  2419.3 secs   av.it.:  19.5
      thresh= 4.629E-06 alpha_mix =  0.500 |ddv_scf|^2 =  3.635E-11

      iter #   4 total cpu time :  2425.8 secs   av.it.:  19.2
      thresh= 6.029E-07 alpha_mix =  0.500 |ddv_scf|^2 =  3.677E-12

      iter #   5 total cpu time :  2432.7 secs   av.it.:  20.2
      thresh= 1.918E-07 alpha_mix =  0.500 |ddv_scf|^2 =  5.488E-14

      iter #   6 total cpu time :  2439.5 secs   av.it.:  19.5
      thresh= 2.343E-08 alpha_mix =  0.500 |ddv_scf|^2 =  6.534E-16

     End of self-consistent calculation

     Convergence has been achieved 


     Representation #  12 mode #  12

     Self-consistent Calculation

      iter #   1 total cpu time :  2443.6 secs   av.it.:   8.8
      thresh= 1.000E-02 alpha_mix =  0.500 |ddv_scf|^2 =  1.783E-07

      iter #   2 total cpu time :  2450.4 secs   av.it.:  19.8
      thresh= 4.222E-05 alpha_mix =  0.500 |ddv_scf|^2 =  4.165E-07

      iter #   3 total cpu time :  2456.4 secs   av.it.:  17.2
      thresh= 6.454E-05 alpha_mix =  0.500 |ddv_scf|^2 =  2.161E-08

      iter #   4 total cpu time :  2463.2 secs   av.it.:  19.8
      thresh= 1.470E-05 alpha_mix =  0.500 |ddv_scf|^2 =  2.908E-08

      iter #   5 total cpu time :  2469.6 secs   av.it.:  18.5
      thresh= 1.705E-05 alpha_mix =  0.500 |ddv_scf|^2 =  2.213E-10

      iter #   6 total cpu time :  2476.3 secs   av.it.:  19.5
      thresh= 1.487E-06 alpha_mix =  0.500 |ddv_scf|^2 =  5.482E-11

      iter #   7 total cpu time :  2483.1 secs   av.it.:  19.8
      thresh= 7.404E-07 alpha_mix =  0.500 |ddv_scf|^2 =  1.593E-12

      iter #   8 total cpu time :  2489.9 secs   av.it.:  19.8
      thresh= 1.262E-07 alpha_mix =  0.500 |ddv_scf|^2 =  2.583E-13

      iter #   9 total cpu time :  2496.9 secs   av.it.:  20.5
      thresh= 5.083E-08 alpha_mix =  0.500 |ddv_scf|^2 =  8.975E-15

     End of self-consistent calculation

     Convergence has been achieved 


     Representation #  13 mode #  13

     Self-consistent Calculation

      iter #   1 total cpu time :  2501.2 secs   av.it.:   9.5
      thresh= 1.000E-02 alpha_mix =  0.500 |ddv_scf|^2 =  1.949E-06

      iter #   2 total cpu time :  2507.6 secs   av.it.:  18.8
      thresh= 1.396E-04 alpha_mix =  0.500 |ddv_scf|^2 =  4.712E-06

      iter #   3 total cpu time :  2513.4 secs   av.it.:  16.5
      thresh= 2.171E-04 alpha_mix =  0.500 |ddv_scf|^2 =  4.972E-08

      iter #   4 total cpu time :  2519.9 secs   av.it.:  18.8
      thresh= 2.230E-05 alpha_mix =  0.500 |ddv_scf|^2 =  4.030E-08

      iter #   5 total cpu time :  2526.2 secs   av.it.:  18.5
      thresh= 2.007E-05 alpha_mix =  0.500 |ddv_scf|^2 =  9.437E-10

      iter #   6 total cpu time :  2532.6 secs   av.it.:  18.2
      thresh= 3.072E-06 alpha_mix =  0.500 |ddv_scf|^2 =  2.516E-11

      iter #   7 total cpu time :  2539.4 secs   av.it.:  19.8
      thresh= 5.016E-07 alpha_mix =  0.500 |ddv_scf|^2 =  5.313E-12

      iter #   8 total cpu time :  2546.1 secs   av.it.:  19.5
      thresh= 2.305E-07 alpha_mix =  0.500 |ddv_scf|^2 =  5.526E-13

      iter #   9 total cpu time :  2552.9 secs   av.it.:  20.0
      thresh= 7.434E-08 alpha_mix =  0.500 |ddv_scf|^2 =  5.088E-14

      iter #  10 total cpu time :  2559.2 secs   av.it.:  18.0
      thresh= 2.256E-08 alpha_mix =  0.500 |ddv_scf|^2 =  6.222E-15

     End of self-consistent calculation

     Convergence has been achieved 


     Representation #  14 mode #  14

     Self-consistent Calculation

      iter #   1 total cpu time :  2564.1 secs   av.it.:  11.5
      thresh= 1.000E-02 alpha_mix =  0.500 |ddv_scf|^2 =  9.130E-06

      iter #   2 total cpu time :  2570.7 secs   av.it.:  19.2
      thresh= 3.022E-04 alpha_mix =  0.500 |ddv_scf|^2 =  3.206E-05

      iter #   3 total cpu time :  2576.6 secs   av.it.:  16.5
      thresh= 5.662E-04 alpha_mix =  0.500 |ddv_scf|^2 =  5.317E-07

      iter #   4 total cpu time :  2583.2 secs   av.it.:  19.5
      thresh= 7.292E-05 alpha_mix =  0.500 |ddv_scf|^2 =  2.352E-07

      iter #   5 total cpu time :  2589.6 secs   av.it.:  18.5
      thresh= 4.850E-05 alpha_mix =  0.500 |ddv_scf|^2 =  7.389E-10

      iter #   6 total cpu time :  2596.5 secs   av.it.:  20.2
      thresh= 2.718E-06 alpha_mix =  0.500 |ddv_scf|^2 =  2.729E-10

      iter #   7 total cpu time :  2603.5 secs   av.it.:  20.2
      thresh= 1.652E-06 alpha_mix =  0.500 |ddv_scf|^2 =  2.397E-11

      iter #   8 total cpu time :  2610.4 secs   av.it.:  20.2
      thresh= 4.896E-07 alpha_mix =  0.500 |ddv_scf|^2 =  1.696E-12

      iter #   9 total cpu time :  2617.0 secs   av.it.:  19.5
      thresh= 1.302E-07 alpha_mix =  0.500 |ddv_scf|^2 =  2.971E-14

      iter #  10 total cpu time :  2624.2 secs   av.it.:  21.2
      thresh= 1.724E-08 alpha_mix =  0.500 |ddv_scf|^2 =  1.479E-13

      iter #  11 total cpu time :  2630.6 secs   av.it.:  18.5
      thresh= 3.846E-08 alpha_mix =  0.500 |ddv_scf|^2 =  9.909E-15

     End of self-consistent calculation

     Convergence has been achieved 


     Representation #  15 mode #  15

     Self-consistent Calculation

      iter #   1 total cpu time :  2634.9 secs   av.it.:   9.8
      thresh= 1.000E-02 alpha_mix =  0.500 |ddv_scf|^2 =  8.938E-07

      iter #   2 total cpu time :  2641.8 secs   av.it.:  20.2
      thresh= 9.454E-05 alpha_mix =  0.500 |ddv_scf|^2 =  8.269E-06

      iter #   3 total cpu time :  2647.8 secs   av.it.:  17.2
      thresh= 2.876E-04 alpha_mix =  0.500 |ddv_scf|^2 =  8.895E-09

      iter #   4 total cpu time :  2654.7 secs   av.it.:  20.2
      thresh= 9.431E-06 alpha_mix =  0.500 |ddv_scf|^2 =  1.824E-08

      iter #   5 total cpu time :  2661.2 secs   av.it.:  18.5
      thresh= 1.351E-05 alpha_mix =  0.500 |ddv_scf|^2 =  4.608E-10

      iter #   6 total cpu time :  2667.9 secs   av.it.:  19.5
      thresh= 2.147E-06 alpha_mix =  0.500 |ddv_scf|^2 =  6.826E-11

      iter #   7 total cpu time :  2674.8 secs   av.it.:  19.8
      thresh= 8.262E-07 alpha_mix =  0.500 |ddv_scf|^2 =  1.105E-12

      iter #   8 total cpu time :  2681.6 secs   av.it.:  19.8
      thresh= 1.051E-07 alpha_mix =  0.500 |ddv_scf|^2 =  5.051E-13

      iter #   9 total cpu time :  2688.3 secs   av.it.:  19.8
      thresh= 7.107E-08 alpha_mix =  0.500 |ddv_scf|^2 =  5.971E-14

      iter #  10 total cpu time :  2695.0 secs   av.it.:  19.5
      thresh= 2.444E-08 alpha_mix =  0.500 |ddv_scf|^2 =  5.656E-15

     End of self-consistent calculation

     Convergence has been achieved 


     Representation #  16 mode #  16

     Self-consistent Calculation

      iter #   1 total cpu time :  2699.3 secs   av.it.:   9.5
      thresh= 1.000E-02 alpha_mix =  0.500 |ddv_scf|^2 =  1.537E-06

      iter #   2 total cpu time :  2706.0 secs   av.it.:  19.5
      thresh= 1.240E-04 alpha_mix =  0.500 |ddv_scf|^2 =  6.690E-06

      iter #   3 total cpu time :  2711.8 secs   av.it.:  16.5
      thresh= 2.587E-04 alpha_mix =  0.500 |ddv_scf|^2 =  1.344E-07

      iter #   4 total cpu time :  2718.4 secs   av.it.:  19.2
      thresh= 3.665E-05 alpha_mix =  0.500 |ddv_scf|^2 =  4.831E-08

      iter #   5 total cpu time :  2725.0 secs   av.it.:  18.5
      thresh= 2.198E-05 alpha_mix =  0.500 |ddv_scf|^2 =  4.967E-10

      iter #   6 total cpu time :  2731.4 secs   av.it.:  18.5
      thresh= 2.229E-06 alpha_mix =  0.500 |ddv_scf|^2 =  1.641E-11

      iter #   7 total cpu time :  2738.3 secs   av.it.:  20.2
      thresh= 4.051E-07 alpha_mix =  0.500 |ddv_scf|^2 =  3.255E-12

      iter #   8 total cpu time :  2745.2 secs   av.it.:  20.0
      thresh= 1.804E-07 alpha_mix =  0.500 |ddv_scf|^2 =  3.540E-13

      iter #   9 total cpu time :  2752.2 secs   av.it.:  20.5
      thresh= 5.950E-08 alpha_mix =  0.500 |ddv_scf|^2 =  3.838E-14

      iter #  10 total cpu time :  2758.8 secs   av.it.:  19.2
      thresh= 1.959E-08 alpha_mix =  0.500 |ddv_scf|^2 =  2.690E-14

      iter #  11 total cpu time :  2765.4 secs   av.it.:  18.8
      thresh= 1.640E-08 alpha_mix =  0.500 |ddv_scf|^2 =  5.274E-15

     End of self-consistent calculation

     Convergence has been achieved 


     Representation #  17 mode #  17

     Self-consistent Calculation

      iter #   1 total cpu time :  2769.7 secs   av.it.:   9.8
      thresh= 1.000E-02 alpha_mix =  0.500 |ddv_scf|^2 =  7.058E-06

      iter #   2 total cpu time :  2776.3 secs   av.it.:  19.0
      thresh= 2.657E-04 alpha_mix =  0.500 |ddv_scf|^2 =  3.912E-05

      iter #   3 total cpu time :  2782.2 secs   av.it.:  16.8
      thresh= 6.255E-04 alpha_mix =  0.500 |ddv_scf|^2 =  5.150E-07

      iter #   4 total cpu time :  2788.6 secs   av.it.:  18.5
      thresh= 7.176E-05 alpha_mix =  0.500 |ddv_scf|^2 =  6.093E-09

      iter #   5 total cpu time :  2795.5 secs   av.it.:  19.8
      thresh= 7.806E-06 alpha_mix =  0.500 |ddv_scf|^2 =  6.639E-10

      iter #   6 total cpu time :  2802.4 secs   av.it.:  20.0
      thresh= 2.577E-06 alpha_mix =  0.500 |ddv_scf|^2 =  3.132E-10

      iter #   7 total cpu time :  2808.8 secs   av.it.:  18.8
      thresh= 1.770E-06 alpha_mix =  0.500 |ddv_scf|^2 =  1.463E-11

      iter #   8 total cpu time :  2815.2 secs   av.it.:  18.2
      thresh= 3.825E-07 alpha_mix =  0.500 |ddv_scf|^2 =  4.248E-13

      iter #   9 total cpu time :  2821.9 secs   av.it.:  19.2
      thresh= 6.517E-08 alpha_mix =  0.500 |ddv_scf|^2 =  7.432E-14

      iter #  10 total cpu time :  2828.5 secs   av.it.:  19.2
      thresh= 2.726E-08 alpha_mix =  0.500 |ddv_scf|^2 =  1.842E-15

     End of self-consistent calculation

     Convergence has been achieved 


     Representation #  18 mode #  18

     Self-consistent Calculation

      iter #   1 total cpu time :  2833.4 secs   av.it.:  11.5
      thresh= 1.000E-02 alpha_mix =  0.500 |ddv_scf|^2 =  2.278E-06

      iter #   2 total cpu time :  2840.3 secs   av.it.:  20.2
      thresh= 1.509E-04 alpha_mix =  0.500 |ddv_scf|^2 =  1.498E-05

      iter #   3 total cpu time :  2846.6 secs   av.it.:  17.5
      thresh= 3.870E-04 alpha_mix =  0.500 |ddv_scf|^2 =  3.894E-07

      iter #   4 total cpu time :  2853.2 secs   av.it.:  19.0
      thresh= 6.241E-05 alpha_mix =  0.500 |ddv_scf|^2 =  3.312E-08

      iter #   5 total cpu time :  2859.9 secs   av.it.:  19.5
      thresh= 1.820E-05 alpha_mix =  0.500 |ddv_scf|^2 =  4.740E-10

      iter #   6 total cpu time :  2866.9 secs   av.it.:  20.2
      thresh= 2.177E-06 alpha_mix =  0.500 |ddv_scf|^2 =  9.328E-10

      iter #   7 total cpu time :  2873.5 secs   av.it.:  19.0
      thresh= 3.054E-06 alpha_mix =  0.500 |ddv_scf|^2 =  1.958E-11

      iter #   8 total cpu time :  2880.0 secs   av.it.:  19.0
      thresh= 4.425E-07 alpha_mix =  0.500 |ddv_scf|^2 =  1.209E-12

      iter #   9 total cpu time :  2886.5 secs   av.it.:  18.5
      thresh= 1.100E-07 alpha_mix =  0.500 |ddv_scf|^2 =  9.408E-14

      iter #  10 total cpu time :  2893.3 secs   av.it.:  19.5
      thresh= 3.067E-08 alpha_mix =  0.500 |ddv_scf|^2 =  1.823E-15

     End of self-consistent calculation

     Convergence has been achieved 


     Representation #  19 mode #  19

     Self-consistent Calculation

      iter #   1 total cpu time :  2897.2 secs   av.it.:   9.0
      thresh= 1.000E-02 alpha_mix =  0.500 |ddv_scf|^2 =  1.055E-07

      iter #   2 total cpu time :  2901.1 secs   av.it.:  19.2
      thresh= 3.248E-05 alpha_mix =  0.500 |ddv_scf|^2 =  1.072E-09

      iter #   3 total cpu time :  2905.2 secs   av.it.:  20.0
      thresh= 3.274E-06 alpha_mix =  0.500 |ddv_scf|^2 =  6.097E-11

      iter #   4 total cpu time :  2909.2 secs   av.it.:  20.0
      thresh= 7.808E-07 alpha_mix =  0.500 |ddv_scf|^2 =  3.556E-12

      iter #   5 total cpu time :  2913.3 secs   av.it.:  20.0
      thresh= 1.886E-07 alpha_mix =  0.500 |ddv_scf|^2 =  2.371E-14

      iter #   6 total cpu time :  2917.4 secs   av.it.:  20.8
      thresh= 1.540E-08 alpha_mix =  0.500 |ddv_scf|^2 =  7.228E-16

     End of self-consistent calculation

     Convergence has been achieved 


     Representation #  20 mode #  20

     Self-consistent Calculation

      iter #   1 total cpu time :  2919.8 secs   av.it.:   8.8
      thresh= 1.000E-02 alpha_mix =  0.500 |ddv_scf|^2 =  5.739E-08

      iter #   2 total cpu time :  2923.6 secs   av.it.:  19.0
      thresh= 2.396E-05 alpha_mix =  0.500 |ddv_scf|^2 =  2.118E-09

      iter #   3 total cpu time :  2927.7 secs   av.it.:  19.5
      thresh= 4.602E-06 alpha_mix =  0.500 |ddv_scf|^2 =  3.318E-11

      iter #   4 total cpu time :  2931.5 secs   av.it.:  19.0
      thresh= 5.760E-07 alpha_mix =  0.500 |ddv_scf|^2 =  3.544E-12

      iter #   5 total cpu time :  2935.6 secs   av.it.:  20.2
      thresh= 1.882E-07 alpha_mix =  0.500 |ddv_scf|^2 =  5.030E-14

      iter #   6 total cpu time :  2939.6 secs   av.it.:  19.8
      thresh= 2.243E-08 alpha_mix =  0.500 |ddv_scf|^2 =  3.937E-16

     End of self-consistent calculation

     Convergence has been achieved 


     Representation #  21 mode #  21

     Self-consistent Calculation

      iter #   1 total cpu time :  2942.3 secs   av.it.:  10.5
      thresh= 1.000E-02 alpha_mix =  0.500 |ddv_scf|^2 =  3.796E-07

      iter #   2 total cpu time :  2946.2 secs   av.it.:  19.5
      thresh= 6.161E-05 alpha_mix =  0.500 |ddv_scf|^2 =  1.499E-09

      iter #   3 total cpu time :  2950.2 secs   av.it.:  20.0
      thresh= 3.872E-06 alpha_mix =  0.500 |ddv_scf|^2 =  2.062E-10

      iter #   4 total cpu time :  2954.3 secs   av.it.:  20.0
      thresh= 1.436E-06 alpha_mix =  0.500 |ddv_scf|^2 =  4.009E-12

      iter #   5 total cpu time :  2958.3 secs   av.it.:  20.2
      thresh= 2.002E-07 alpha_mix =  0.500 |ddv_scf|^2 =  1.453E-13

      iter #   6 total cpu time :  2962.5 secs   av.it.:  20.5
      thresh= 3.812E-08 alpha_mix =  0.500 |ddv_scf|^2 =  1.834E-15

     End of self-consistent calculation

     Convergence has been achieved 


     Representation #  22 mode #  22

     Self-consistent Calculation

      iter #   1 total cpu time :  2964.8 secs   av.it.:   8.5
      thresh= 1.000E-02 alpha_mix =  0.500 |ddv_scf|^2 =  4.509E-08

      iter #   2 total cpu time :  2968.7 secs   av.it.:  19.0
      thresh= 2.124E-05 alpha_mix =  0.500 |ddv_scf|^2 =  1.995E-09

      iter #   3 total cpu time :  2972.6 secs   av.it.:  19.5
      thresh= 4.467E-06 alpha_mix =  0.500 |ddv_scf|^2 =  2.613E-11

      iter #   4 total cpu time :  2976.4 secs   av.it.:  19.0
      thresh= 5.112E-07 alpha_mix =  0.500 |ddv_scf|^2 =  2.595E-12

      iter #   5 total cpu time :  2980.4 secs   av.it.:  20.2
      thresh= 1.611E-07 alpha_mix =  0.500 |ddv_scf|^2 =  3.709E-14

      iter #   6 total cpu time :  2984.3 secs   av.it.:  19.8
      thresh= 1.926E-08 alpha_mix =  0.500 |ddv_scf|^2 =  2.830E-16

     End of self-consistent calculation

     Convergence has been achieved 


     Representation #  23 mode #  23

     Self-consistent Calculation

      iter #   1 total cpu time :  2987.4 secs   av.it.:   8.5
      thresh= 1.000E-02 alpha_mix =  0.500 |ddv_scf|^2 =  4.694E-08

      iter #   2 total cpu time :  2991.3 secs   av.it.:  19.2
      thresh= 2.167E-05 alpha_mix =  0.500 |ddv_scf|^2 =  1.388E-09

      iter #   3 total cpu time :  2995.2 secs   av.it.:  19.8
      thresh= 3.726E-06 alpha_mix =  0.500 |ddv_scf|^2 =  4.638E-11

      iter #   4 total cpu time :  2999.2 secs   av.it.:  20.0
      thresh= 6.811E-07 alpha_mix =  0.500 |ddv_scf|^2 =  2.514E-12

      iter #   5 total cpu time :  3003.2 secs   av.it.:  20.2
      thresh= 1.586E-07 alpha_mix =  0.500 |ddv_scf|^2 =  1.261E-14

      iter #   6 total cpu time :  3007.3 secs   av.it.:  20.8
      thresh= 1.123E-08 alpha_mix =  0.500 |ddv_scf|^2 =  3.082E-16

     End of self-consistent calculation

     Convergence has been achieved 


     Representation #  24 mode #  24

     Self-consistent Calculation

      iter #   1 total cpu time :  3009.9 secs   av.it.:  10.5
      thresh= 1.000E-02 alpha_mix =  0.500 |ddv_scf|^2 =  2.867E-07

      iter #   2 total cpu time :  3013.9 secs   av.it.:  19.5
      thresh= 5.354E-05 alpha_mix =  0.500 |ddv_scf|^2 =  1.018E-09

      iter #   3 total cpu time :  3017.8 secs   av.it.:  19.5
      thresh= 3.190E-06 alpha_mix =  0.500 |ddv_scf|^2 =  1.637E-10

      iter #   4 total cpu time :  3021.9 secs   av.it.:  20.2
      thresh= 1.279E-06 alpha_mix =  0.500 |ddv_scf|^2 =  1.926E-12

      iter #   5 total cpu time :  3026.0 secs   av.it.:  20.5
      thresh= 1.388E-07 alpha_mix =  0.500 |ddv_scf|^2 =  4.460E-14

      iter #   6 total cpu time :  3030.0 secs   av.it.:  20.5
      thresh= 2.112E-08 alpha_mix =  0.500 |ddv_scf|^2 =  1.319E-15

     End of self-consistent calculation

     Convergence has been achieved 


     Representation #  25 mode #  25

     Self-consistent Calculation

      iter #   1 total cpu time :  3032.5 secs   av.it.:   9.0
      thresh= 1.000E-02 alpha_mix =  0.500 |ddv_scf|^2 =  1.923E-07

      iter #   2 total cpu time :  3036.5 secs   av.it.:  20.2
      thresh= 4.386E-05 alpha_mix =  0.500 |ddv_scf|^2 =  2.538E-07

      iter #   3 total cpu time :  3040.4 secs   av.it.:  19.8
      thresh= 5.038E-05 alpha_mix =  0.500 |ddv_scf|^2 =  1.401E-07

      iter #   4 total cpu time :  3044.2 secs   av.it.:  18.8
      thresh= 3.743E-05 alpha_mix =  0.500 |ddv_scf|^2 =  6.003E-09

      iter #   5 total cpu time :  3048.0 secs   av.it.:  19.2
      thresh= 7.748E-06 alpha_mix =  0.500 |ddv_scf|^2 =  5.311E-11

      iter #   6 total cpu time :  3052.1 secs   av.it.:  20.5
      thresh= 7.288E-07 alpha_mix =  0.500 |ddv_scf|^2 =  2.964E-11

      iter #   7 total cpu time :  3056.0 secs   av.it.:  19.8
      thresh= 5.444E-07 alpha_mix =  0.500 |ddv_scf|^2 =  2.505E-12

      iter #   8 total cpu time :  3059.9 secs   av.it.:  19.8
      thresh= 1.583E-07 alpha_mix =  0.500 |ddv_scf|^2 =  1.219E-13

      iter #   9 total cpu time :  3063.9 secs   av.it.:  19.8
      thresh= 3.492E-08 alpha_mix =  0.500 |ddv_scf|^2 =  4.409E-15

     End of self-consistent calculation

     Convergence has been achieved 


     Representation #  26 mode #  26

     Self-consistent Calculation

      iter #   1 total cpu time :  3066.7 secs   av.it.:  10.8
      thresh= 1.000E-02 alpha_mix =  0.500 |ddv_scf|^2 =  5.837E-07

      iter #   2 total cpu time :  3070.8 secs   av.it.:  20.8
      thresh= 7.640E-05 alpha_mix =  0.500 |ddv_scf|^2 =  6.221E-07

      iter #   3 total cpu time :  3074.8 secs   av.it.:  19.8
      thresh= 7.888E-05 alpha_mix =  0.500 |ddv_scf|^2 =  4.025E-07

      iter #   4 total cpu time :  3078.6 secs   av.it.:  18.8
      thresh= 6.345E-05 alpha_mix =  0.500 |ddv_scf|^2 =  1.548E-08

      iter #   5 total cpu time :  3082.5 secs   av.it.:  19.8
      thresh= 1.244E-05 alpha_mix =  0.500 |ddv_scf|^2 =  2.660E-10

      iter #   6 total cpu time :  3086.6 secs   av.it.:  20.8
      thresh= 1.631E-06 alpha_mix =  0.500 |ddv_scf|^2 =  9.125E-11

      iter #   7 total cpu time :  3090.6 secs   av.it.:  20.2
      thresh= 9.552E-07 alpha_mix =  0.500 |ddv_scf|^2 =  3.537E-12

      iter #   8 total cpu time :  3094.7 secs   av.it.:  20.5
      thresh= 1.881E-07 alpha_mix =  0.500 |ddv_scf|^2 =  1.445E-13

      iter #   9 total cpu time :  3098.7 secs   av.it.:  20.5
      thresh= 3.801E-08 alpha_mix =  0.500 |ddv_scf|^2 =  3.408E-14

      iter #  10 total cpu time :  3103.0 secs   av.it.:  21.2
      thresh= 1.846E-08 alpha_mix =  0.500 |ddv_scf|^2 =  1.436E-13

      iter #  11 total cpu time :  3107.0 secs   av.it.:  18.8
      thresh= 3.789E-08 alpha_mix =  0.500 |ddv_scf|^2 =  6.426E-15

     End of self-consistent calculation

     Convergence has been achieved 


     Representation #  27 mode #  27

     Self-consistent Calculation

      iter #   1 total cpu time :  3109.5 secs   av.it.:   9.2
      thresh= 1.000E-02 alpha_mix =  0.500 |ddv_scf|^2 =  1.466E-07

      iter #   2 total cpu time :  3113.7 secs   av.it.:  21.2
      thresh= 3.828E-05 alpha_mix =  0.500 |ddv_scf|^2 =  5.892E-07

      iter #   3 total cpu time :  3117.5 secs   av.it.:  18.8
      thresh= 7.676E-05 alpha_mix =  0.500 |ddv_scf|^2 =  3.216E-08

      iter #   4 total cpu time :  3121.3 secs   av.it.:  19.0
      thresh= 1.793E-05 alpha_mix =  0.500 |ddv_scf|^2 =  6.478E-10

      iter #   5 total cpu time :  3125.3 secs   av.it.:  20.2
      thresh= 2.545E-06 alpha_mix =  0.500 |ddv_scf|^2 =  1.381E-10

      iter #   6 total cpu time :  3129.3 secs   av.it.:  19.8
      thresh= 1.175E-06 alpha_mix =  0.500 |ddv_scf|^2 =  2.524E-12

      iter #   7 total cpu time :  3133.3 secs   av.it.:  20.2
      thresh= 1.589E-07 alpha_mix =  0.500 |ddv_scf|^2 =  7.484E-13

      iter #   8 total cpu time :  3137.3 secs   av.it.:  20.2
      thresh= 8.651E-08 alpha_mix =  0.500 |ddv_scf|^2 =  3.434E-13

      iter #   9 total cpu time :  3141.3 secs   av.it.:  19.8
      thresh= 5.860E-08 alpha_mix =  0.500 |ddv_scf|^2 =  2.187E-15

     End of self-consistent calculation

     Convergence has been achieved 


     Representation #  28 mode #  28

     Self-consistent Calculation

      iter #   1 total cpu time :  3143.7 secs   av.it.:   9.5
      thresh= 1.000E-02 alpha_mix =  0.500 |ddv_scf|^2 =  4.218E-07

      iter #   2 total cpu time :  3147.9 secs   av.it.:  20.2
      thresh= 6.495E-05 alpha_mix =  0.500 |ddv_scf|^2 =  1.287E-06

      iter #   3 total cpu time :  3151.8 secs   av.it.:  18.8
      thresh= 1.135E-04 alpha_mix =  0.500 |ddv_scf|^2 =  1.592E-07

      iter #   4 total cpu time :  3155.6 secs   av.it.:  18.8
      thresh= 3.990E-05 alpha_mix =  0.500 |ddv_scf|^2 =  3.446E-09

      iter #   5 total cpu time :  3159.4 secs   av.it.:  19.5
      thresh= 5.870E-06 alpha_mix =  0.500 |ddv_scf|^2 =  4.873E-11

      iter #   6 total cpu time :  3163.4 secs   av.it.:  19.5
      thresh= 6.980E-07 alpha_mix =  0.500 |ddv_scf|^2 =  4.541E-12

      iter #   7 total cpu time :  3167.4 secs   av.it.:  20.0
      thresh= 2.131E-07 alpha_mix =  0.500 |ddv_scf|^2 =  1.904E-12

      iter #   8 total cpu time :  3171.4 secs   av.it.:  19.5
      thresh= 1.380E-07 alpha_mix =  0.500 |ddv_scf|^2 =  5.328E-14

      iter #   9 total cpu time :  3175.4 secs   av.it.:  20.0
      thresh= 2.308E-08 alpha_mix =  0.500 |ddv_scf|^2 =  5.626E-15

     End of self-consistent calculation

     Convergence has been achieved 


     Representation #  29 mode #  29

     Self-consistent Calculation

      iter #   1 total cpu time :  3177.9 secs   av.it.:   9.5
      thresh= 1.000E-02 alpha_mix =  0.500 |ddv_scf|^2 =  7.404E-07

      iter #   2 total cpu time :  3182.0 secs   av.it.:  20.8
      thresh= 8.605E-05 alpha_mix =  0.500 |ddv_scf|^2 =  2.579E-06

      iter #   3 total cpu time :  3185.8 secs   av.it.:  18.8
      thresh= 1.606E-04 alpha_mix =  0.500 |ddv_scf|^2 =  2.311E-07

      iter #   4 total cpu time :  3189.6 secs   av.it.:  18.8
      thresh= 4.807E-05 alpha_mix =  0.500 |ddv_scf|^2 =  2.638E-09

      iter #   5 total cpu time :  3193.6 secs   av.it.:  20.0
      thresh= 5.136E-06 alpha_mix =  0.500 |ddv_scf|^2 =  9.401E-11

      iter #   6 total cpu time :  3197.7 secs   av.it.:  20.0
      thresh= 9.696E-07 alpha_mix =  0.500 |ddv_scf|^2 =  1.623E-11

      iter #   7 total cpu time :  3201.6 secs   av.it.:  19.5
      thresh= 4.028E-07 alpha_mix =  0.500 |ddv_scf|^2 =  2.902E-12

      iter #   8 total cpu time :  3205.5 secs   av.it.:  19.8
      thresh= 1.703E-07 alpha_mix =  0.500 |ddv_scf|^2 =  1.059E-13

      iter #   9 total cpu time :  3209.5 secs   av.it.:  19.8
      thresh= 3.255E-08 alpha_mix =  0.500 |ddv_scf|^2 =  1.605E-14

      iter #  10 total cpu time :  3213.6 secs   av.it.:  20.5
      thresh= 1.267E-08 alpha_mix =  0.500 |ddv_scf|^2 =  2.166E-15

     End of self-consistent calculation

     Convergence has been achieved 


     Representation #  30 mode #  30

     Self-consistent Calculation

      iter #   1 total cpu time :  3216.1 secs   av.it.:   9.5
      thresh= 1.000E-02 alpha_mix =  0.500 |ddv_scf|^2 =  2.868E-07

      iter #   2 total cpu time :  3220.3 secs   av.it.:  21.2
      thresh= 5.355E-05 alpha_mix =  0.500 |ddv_scf|^2 =  1.466E-06

      iter #   3 total cpu time :  3224.0 secs   av.it.:  18.8
      thresh= 1.211E-04 alpha_mix =  0.500 |ddv_scf|^2 =  4.030E-08

      iter #   4 total cpu time :  3227.9 secs   av.it.:  19.2
      thresh= 2.008E-05 alpha_mix =  0.500 |ddv_scf|^2 =  3.774E-09

      iter #   5 total cpu time :  3231.7 secs   av.it.:  19.2
      thresh= 6.143E-06 alpha_mix =  0.500 |ddv_scf|^2 =  7.854E-11

      iter #   6 total cpu time :  3235.8 secs   av.it.:  20.5
      thresh= 8.862E-07 alpha_mix =  0.500 |ddv_scf|^2 =  1.708E-11

      iter #   7 total cpu time :  3239.7 secs   av.it.:  19.5
      thresh= 4.132E-07 alpha_mix =  0.500 |ddv_scf|^2 =  1.308E-12

      iter #   8 total cpu time :  3243.8 secs   av.it.:  20.0
      thresh= 1.144E-07 alpha_mix =  0.500 |ddv_scf|^2 =  9.501E-14

      iter #   9 total cpu time :  3247.7 secs   av.it.:  20.0
      thresh= 3.082E-08 alpha_mix =  0.500 |ddv_scf|^2 =  5.072E-15

     End of self-consistent calculation

     Convergence has been achieved 


     Representation #  31 mode #  31

     Self-consistent Calculation

      iter #   1 total cpu time :  3250.5 secs   av.it.:  11.0
      thresh= 1.000E-02 alpha_mix =  0.500 |ddv_scf|^2 =  6.855E-07

      iter #   2 total cpu time :  3254.6 secs   av.it.:  21.2
      thresh= 8.279E-05 alpha_mix =  0.500 |ddv_scf|^2 =  9.726E-07

      iter #   3 total cpu time :  3258.6 secs   av.it.:  19.8
      thresh= 9.862E-05 alpha_mix =  0.500 |ddv_scf|^2 =  5.757E-07

      iter #   4 total cpu time :  3262.3 secs   av.it.:  18.5
      thresh= 7.588E-05 alpha_mix =  0.500 |ddv_scf|^2 =  1.704E-08

      iter #   5 total cpu time :  3266.2 secs   av.it.:  19.8
      thresh= 1.305E-05 alpha_mix =  0.500 |ddv_scf|^2 =  5.273E-10

      iter #   6 total cpu time :  3270.2 secs   av.it.:  20.2
      thresh= 2.296E-06 alpha_mix =  0.500 |ddv_scf|^2 =  1.284E-10

      iter #   7 total cpu time :  3274.2 secs   av.it.:  20.2
      thresh= 1.133E-06 alpha_mix =  0.500 |ddv_scf|^2 =  1.906E-12

      iter #   8 total cpu time :  3278.3 secs   av.it.:  20.8
      thresh= 1.380E-07 alpha_mix =  0.500 |ddv_scf|^2 =  4.138E-13

      iter #   9 total cpu time :  3282.3 secs   av.it.:  20.5
      thresh= 6.432E-08 alpha_mix =  0.500 |ddv_scf|^2 =  2.878E-14

      iter #  10 total cpu time :  3286.2 secs   av.it.:  19.0
      thresh= 1.696E-08 alpha_mix =  0.500 |ddv_scf|^2 =  1.787E-15

     End of self-consistent calculation

     Convergence has been achieved 


     Representation #  32 mode #  32

     Self-consistent Calculation

      iter #   1 total cpu time :  3288.4 secs   av.it.:   7.8
      thresh= 1.000E-02 alpha_mix =  0.500 |ddv_scf|^2 =  5.604E-08

      iter #   2 total cpu time :  3292.1 secs   av.it.:  18.5
      thresh= 2.367E-05 alpha_mix =  0.500 |ddv_scf|^2 =  2.043E-09

      iter #   3 total cpu time :  3295.9 secs   av.it.:  19.0
      thresh= 4.520E-06 alpha_mix =  0.500 |ddv_scf|^2 =  2.651E-11

      iter #   4 total cpu time :  3299.6 secs   av.it.:  18.8
      thresh= 5.149E-07 alpha_mix =  0.500 |ddv_scf|^2 =  2.808E-12

      iter #   5 total cpu time :  3303.6 secs   av.it.:  19.8
      thresh= 1.676E-07 alpha_mix =  0.500 |ddv_scf|^2 =  3.518E-14

      iter #   6 total cpu time :  3307.6 secs   av.it.:  20.2
      thresh= 1.876E-08 alpha_mix =  0.500 |ddv_scf|^2 =  5.193E-16

     End of self-consistent calculation

     Convergence has been achieved 


     Representation #  33 mode #  33

     Self-consistent Calculation

      iter #   1 total cpu time :  3309.9 secs   av.it.:   8.5
      thresh= 1.000E-02 alpha_mix =  0.500 |ddv_scf|^2 =  4.868E-08

      iter #   2 total cpu time :  3313.8 secs   av.it.:  19.2
      thresh= 2.206E-05 alpha_mix =  0.500 |ddv_scf|^2 =  2.035E-09

      iter #   3 total cpu time :  3317.7 secs   av.it.:  19.5
      thresh= 4.511E-06 alpha_mix =  0.500 |ddv_scf|^2 =  2.803E-11

      iter #   4 total cpu time :  3321.5 secs   av.it.:  18.8
      thresh= 5.294E-07 alpha_mix =  0.500 |ddv_scf|^2 =  2.816E-12

      iter #   5 total cpu time :  3325.5 secs   av.it.:  20.0
      thresh= 1.678E-07 alpha_mix =  0.500 |ddv_scf|^2 =  4.138E-14

      iter #   6 total cpu time :  3329.7 secs   av.it.:  19.5
      thresh= 2.034E-08 alpha_mix =  0.500 |ddv_scf|^2 =  4.103E-16

     End of self-consistent calculation

     Convergence has been achieved 


     Representation #  34 mode #  34

     Self-consistent Calculation

      iter #   1 total cpu time :  3332.1 secs   av.it.:   8.5
      thresh= 1.000E-02 alpha_mix =  0.500 |ddv_scf|^2 =  4.871E-08

      iter #   2 total cpu time :  3335.9 secs   av.it.:  19.2
      thresh= 2.207E-05 alpha_mix =  0.500 |ddv_scf|^2 =  1.358E-09

      iter #   3 total cpu time :  3339.9 secs   av.it.:  20.0
      thresh= 3.685E-06 alpha_mix =  0.500 |ddv_scf|^2 =  5.248E-11

      iter #   4 total cpu time :  3343.9 secs   av.it.:  20.0
      thresh= 7.244E-07 alpha_mix =  0.500 |ddv_scf|^2 =  2.610E-12

      iter #   5 total cpu time :  3348.0 secs   av.it.:  20.2
      thresh= 1.616E-07 alpha_mix =  0.500 |ddv_scf|^2 =  1.269E-14

      iter #   6 total cpu time :  3352.0 secs   av.it.:  20.2
      thresh= 1.127E-08 alpha_mix =  0.500 |ddv_scf|^2 =  3.959E-16

     End of self-consistent calculation

     Convergence has been achieved 


     Representation #  35 mode #  35

     Self-consistent Calculation

      iter #   1 total cpu time :  3354.7 secs   av.it.:  10.5
      thresh= 1.000E-02 alpha_mix =  0.500 |ddv_scf|^2 =  3.083E-07

      iter #   2 total cpu time :  3358.7 secs   av.it.:  19.5
      thresh= 5.553E-05 alpha_mix =  0.500 |ddv_scf|^2 =  9.911E-10

      iter #   3 total cpu time :  3362.8 secs   av.it.:  20.0
      thresh= 3.148E-06 alpha_mix =  0.500 |ddv_scf|^2 =  1.748E-10

[...]

      iter #   4 total cpu time :  3529.9 secs   av.it.:  18.5
      thresh= 6.862E-05 alpha_mix =  0.500 |ddv_scf|^2 =  3.241E-08

      iter #   5 total cpu time :  3533.7 secs   av.it.:  18.5
      thresh= 1.800E-05 alpha_mix =  0.500 |ddv_scf|^2 =  2.923E-09

      iter #   6 total cpu time :  3537.4 secs   av.it.:  18.2
      thresh= 5.406E-06 alpha_mix =  0.500 |ddv_scf|^2 =  1.438E-10

      iter #   7 total cpu time :  3541.2 secs   av.it.:  18.8
      thresh= 1.199E-06 alpha_mix =  0.500 |ddv_scf|^2 =  3.741E-12

      iter #   8 total cpu time :  3545.2 secs   av.it.:  19.8
      thresh= 1.934E-07 alpha_mix =  0.500 |ddv_scf|^2 =  1.270E-12

      iter #   9 total cpu time :  3549.3 secs   av.it.:  20.0
      thresh= 1.127E-07 alpha_mix =  0.500 |ddv_scf|^2 =  5.418E-13

      iter #  10 total cpu time :  3553.3 secs   av.it.:  19.8
      thresh= 7.361E-08 alpha_mix =  0.500 |ddv_scf|^2 =  5.983E-14

      iter #  11 total cpu time :  3557.3 secs   av.it.:  20.0
      thresh= 2.446E-08 alpha_mix =  0.500 |ddv_scf|^2 =  3.991E-14

      iter #  12 total cpu time :  3561.1 secs   av.it.:  19.0
      thresh= 1.998E-08 alpha_mix =  0.500 |ddv_scf|^2 =  2.750E-15

     End of self-consistent calculation

     Convergence has been achieved 


     Representation #  40 mode #  40

     Self-consistent Calculation

      iter #   1 total cpu time :  3563.7 secs   av.it.:   9.8
      thresh= 1.000E-02 alpha_mix =  0.500 |ddv_scf|^2 =  4.766E-06

      iter #   2 total cpu time :  3567.4 secs   av.it.:  18.8
      thresh= 2.183E-04 alpha_mix =  0.500 |ddv_scf|^2 =  1.095E-05

      iter #   3 total cpu time :  3571.0 secs   av.it.:  17.8
      thresh= 3.309E-04 alpha_mix =  0.500 |ddv_scf|^2 =  3.069E-07

      iter #   4 total cpu time :  3574.8 secs   av.it.:  18.5
      thresh= 5.539E-05 alpha_mix =  0.500 |ddv_scf|^2 =  1.576E-08

      iter #   5 total cpu time :  3578.7 secs   av.it.:  19.8
      thresh= 1.255E-05 alpha_mix =  0.500 |ddv_scf|^2 =  8.083E-09

      iter #   6 total cpu time :  3582.4 secs   av.it.:  18.8
      thresh= 8.990E-06 alpha_mix =  0.500 |ddv_scf|^2 =  7.456E-10

      iter #   7 total cpu time :  3586.1 secs   av.it.:  18.2
      thresh= 2.731E-06 alpha_mix =  0.500 |ddv_scf|^2 =  4.467E-12

      iter #   8 total cpu time :  3590.1 secs   av.it.:  19.5
      thresh= 2.114E-07 alpha_mix =  0.500 |ddv_scf|^2 =  1.385E-12

      iter #   9 total cpu time :  3594.1 secs   av.it.:  20.2
      thresh= 1.177E-07 alpha_mix =  0.500 |ddv_scf|^2 =  2.201E-12

      iter #  10 total cpu time :  3598.0 secs   av.it.:  18.8
      thresh= 1.483E-07 alpha_mix =  0.500 |ddv_scf|^2 =  2.243E-13

      iter #  11 total cpu time :  3601.8 secs   av.it.:  19.0
      thresh= 4.736E-08 alpha_mix =  0.500 |ddv_scf|^2 =  3.634E-14

      iter #  12 total cpu time :  3605.5 secs   av.it.:  18.5
      thresh= 1.906E-08 alpha_mix =  0.500 |ddv_scf|^2 =  6.148E-15

     End of self-consistent calculation

     Convergence has been achieved 


     Representation #  41 mode #  41

     Self-consistent Calculation

      iter #   1 total cpu time :  3608.1 secs   av.it.:   9.5
      thresh= 1.000E-02 alpha_mix =  0.500 |ddv_scf|^2 =  2.180E-06

      iter #   2 total cpu time :  3612.0 secs   av.it.:  19.2
      thresh= 1.476E-04 alpha_mix =  0.500 |ddv_scf|^2 =  5.200E-06

      iter #   3 total cpu time :  3615.7 secs   av.it.:  17.8
      thresh= 2.280E-04 alpha_mix =  0.500 |ddv_scf|^2 =  2.026E-07

      iter #   4 total cpu time :  3619.4 secs   av.it.:  19.0
      thresh= 4.501E-05 alpha_mix =  0.500 |ddv_scf|^2 =  1.719E-08

      iter #   5 total cpu time :  3623.4 secs   av.it.:  19.8
      thresh= 1.311E-05 alpha_mix =  0.500 |ddv_scf|^2 =  5.345E-09

      iter #   6 total cpu time :  3627.2 secs   av.it.:  18.8
      thresh= 7.311E-06 alpha_mix =  0.500 |ddv_scf|^2 =  1.461E-10

      iter #   7 total cpu time :  3631.0 secs   av.it.:  18.5
      thresh= 1.209E-06 alpha_mix =  0.500 |ddv_scf|^2 =  2.861E-12

      iter #   8 total cpu time :  3635.1 secs   av.it.:  20.8
      thresh= 1.691E-07 alpha_mix =  0.500 |ddv_scf|^2 =  2.418E-12

      iter #   9 total cpu time :  3639.0 secs   av.it.:  19.5
      thresh= 1.555E-07 alpha_mix =  0.500 |ddv_scf|^2 =  1.777E-13

      iter #  10 total cpu time :  3643.1 secs   av.it.:  20.5
      thresh= 4.216E-08 alpha_mix =  0.500 |ddv_scf|^2 =  2.743E-13

      iter #  11 total cpu time :  3646.9 secs   av.it.:  19.5
      thresh= 5.237E-08 alpha_mix =  0.500 |ddv_scf|^2 =  1.268E-14

      iter #  12 total cpu time :  3650.7 secs   av.it.:  18.8
      thresh= 1.126E-08 alpha_mix =  0.500 |ddv_scf|^2 =  3.506E-15

     End of self-consistent calculation

     Convergence has been achieved 


     Representation #  42 mode #  42

     Self-consistent Calculation

      iter #   1 total cpu time :  3653.5 secs   av.it.:  11.2
      thresh= 1.000E-02 alpha_mix =  0.500 |ddv_scf|^2 =  1.421E-06

      iter #   2 total cpu time :  3657.6 secs   av.it.:  20.5
      thresh= 1.192E-04 alpha_mix =  0.500 |ddv_scf|^2 =  4.149E-06

      iter #   3 total cpu time :  3661.4 secs   av.it.:  18.5
      thresh= 2.037E-04 alpha_mix =  0.500 |ddv_scf|^2 =  3.325E-07

      iter #   4 total cpu time :  3665.1 secs   av.it.:  19.0
      thresh= 5.767E-05 alpha_mix =  0.500 |ddv_scf|^2 =  7.953E-08

      iter #   5 total cpu time :  3669.0 secs   av.it.:  19.5
      thresh= 2.820E-05 alpha_mix =  0.500 |ddv_scf|^2 =  1.406E-08

      iter #   6 total cpu time :  3672.7 secs   av.it.:  18.5
      thresh= 1.186E-05 alpha_mix =  0.500 |ddv_scf|^2 =  1.065E-09

      iter #   7 total cpu time :  3676.6 secs   av.it.:  19.5
      thresh= 3.263E-06 alpha_mix =  0.500 |ddv_scf|^2 =  3.173E-11

      iter #   8 total cpu time :  3680.6 secs   av.it.:  20.0
      thresh= 5.633E-07 alpha_mix =  0.500 |ddv_scf|^2 =  1.070E-11

      iter #   9 total cpu time :  3684.6 secs   av.it.:  20.0
      thresh= 3.271E-07 alpha_mix =  0.500 |ddv_scf|^2 =  5.745E-12

      iter #  10 total cpu time :  3688.6 secs   av.it.:  19.8
      thresh= 2.397E-07 alpha_mix =  0.500 |ddv_scf|^2 =  2.841E-12

      iter #  11 total cpu time :  3692.6 secs   av.it.:  19.8
      thresh= 1.686E-07 alpha_mix =  0.500 |ddv_scf|^2 =  1.325E-13

      iter #  12 total cpu time :  3696.6 secs   av.it.:  20.0
      thresh= 3.641E-08 alpha_mix =  0.500 |ddv_scf|^2 =  1.307E-13

      iter #  13 total cpu time :  3700.6 secs   av.it.:  19.5
      thresh= 3.615E-08 alpha_mix =  0.500 |ddv_scf|^2 =  1.166E-14

      iter #  14 total cpu time :  3704.6 secs   av.it.:  20.0
      thresh= 1.080E-08 alpha_mix =  0.500 |ddv_scf|^2 =  1.815E-15

     End of self-consistent calculation

     Convergence has been achieved 

     Number of q in the star =    1
     List of q in the star:
          1   0.000000000   0.000000000   0.000000000

          Dielectric constant in cartesian axis 

          (       5.454115510       0.000000000       0.000000000 )
          (       0.000000000       3.279279058       0.000000000 )
          (       0.000000000       0.000000000       6.172059244 )

          Effective charges (d Force / dE) in cartesian axis

           atom      1   V  
      Ex  (        6.18981        0.00000        0.00000 )
      Ey  (        0.00000        2.83284       -0.01213 )
      Ez  (       -0.00000       -0.46639        6.55682 )
           atom      2   V  
      Ex  (        6.18981        0.00000       -0.00000 )
      Ey  (       -0.00000        2.83284       -0.01213 )
      Ez  (       -0.00000       -0.46639        6.55682 )
           atom      3   V  
      Ex  (        6.18981        0.00000       -0.00000 )
      Ey  (        0.00000        2.83284        0.01213 )
      Ez  (        0.00000        0.46639        6.55682 )
           atom      4   V  
      Ex  (        6.18981        0.00000        0.00000 )
      Ey  (       -0.00000        2.83284        0.01213 )
      Ez  (        0.00000        0.46639        6.55682 )
           atom      5   O  
      Ex  (       -5.12278        0.00000       -0.00000 )
      Ey  (        0.00000       -0.68327       -0.33071 )
      Ez  (        0.00000       -0.81946       -2.66520 )
           atom      6   O  
      Ex  (       -5.12278        0.00000        0.00000 )
      Ey  (       -0.00000       -0.68327       -0.33071 )
      Ez  (        0.00000       -0.81946       -2.66520 )
           atom      7   O  
      Ex  (       -5.12278        0.00000        0.00000 )
      Ey  (        0.00000       -0.68327        0.33071 )
      Ez  (        0.00000        0.81946       -2.66520 )
           atom      8   O  
      Ex  (       -5.12278        0.00000       -0.00000 )
      Ey  (       -0.00000       -0.68327        0.33071 )
      Ez  (        0.00000        0.81946       -2.66520 )
           atom      9   O  
      Ex  (       -0.51214        0.00000       -0.00000 )
      Ey  (        0.00000       -1.84923       -0.07561 )
      Ez  (        0.00000       -0.19449       -0.45153 )
           atom     10   O  
      Ex  (       -0.51214        0.00000        0.00000 )
      Ey  (        0.00000       -1.84923       -0.07561 )
      Ez  (        0.00000       -0.19449       -0.45153 )
           atom     11   O  
      Ex  (       -0.51214        0.00000        0.00000 )
      Ey  (        0.00000       -1.84923        0.07561 )
      Ez  (        0.00000        0.19449       -0.45153 )
           atom     12   O  
      Ex  (       -1.03646        0.00000       -0.00000 )
      Ey  (       -0.00000       -0.61095        0.00000 )
      Ez  (        0.00000        0.00000       -6.98225 )
           atom     13   O  
      Ex  (       -1.03646        0.00000       -0.00000 )
      Ey  (       -0.00000       -0.61095        0.00000 )
      Ez  (        0.00000        0.00000       -6.98225 )
           atom     14   O  
      Ex  (       -0.51214        0.00000        0.00000 )
      Ey  (        0.00000       -1.84923        0.07561 )
      Ez  (       -0.00000        0.19449       -0.45153 )

     Diagonalizing the dynamical matrix

     q = (    0.000000000   0.000000000   0.000000000 ) 

 **************************************************************************
     freq (    1) =      -0.962271 [THz] =     -32.097906 [cm-1]
     freq (    2) =      -0.629661 [THz] =     -21.003217 [cm-1]
     freq (    3) =      -0.528184 [THz] =     -17.618325 [cm-1]
     freq (    4) =       1.778363 [THz] =      59.319808 [cm-1]
     freq (    5) =       1.917619 [THz] =      63.964896 [cm-1]
     freq (    6) =       2.719806 [THz] =      90.722949 [cm-1]
     freq (    7) =       3.536085 [THz] =     117.951106 [cm-1]
     freq (    8) =       3.900557 [THz] =     130.108593 [cm-1]
     freq (    9) =       4.046474 [THz] =     134.975843 [cm-1]
     freq (   10) =       4.211102 [THz] =     140.467248 [cm-1]
     freq (   11) =       5.332814 [THz] =     177.883525 [cm-1]
     freq (   12) =       5.586211 [THz] =     186.335940 [cm-1]
     freq (   13) =       6.219908 [THz] =     207.473793 [cm-1]
     freq (   14) =       6.980827 [THz] =     232.855318 [cm-1]
     freq (   15) =       7.376302 [THz] =     246.046965 [cm-1]
     freq (   16) =       7.878478 [THz] =     262.797725 [cm-1]
     freq (   17) =       8.318307 [THz] =     277.468842 [cm-1]
     freq (   18) =       8.357093 [THz] =     278.762614 [cm-1]
     freq (   19) =       8.410563 [THz] =     280.546178 [cm-1]
     freq (   20) =       8.487862 [THz] =     283.124605 [cm-1]
     freq (   21) =       8.742735 [THz] =     291.626234 [cm-1]
     freq (   22) =       8.896224 [THz] =     296.746099 [cm-1]
     freq (   23) =      10.394778 [THz] =     346.732475 [cm-1]
     freq (   24) =      10.433637 [THz] =     348.028679 [cm-1]
     freq (   25) =      10.638140 [THz] =     354.850170 [cm-1]
     freq (   26) =      11.959145 [THz] =     398.914124 [cm-1]
     freq (   27) =      12.067350 [THz] =     402.523461 [cm-1]
     freq (   28) =      14.034409 [THz] =     468.137511 [cm-1]
     freq (   29) =      14.105887 [THz] =     470.521727 [cm-1]
     freq (   30) =      14.137550 [THz] =     471.577907 [cm-1]
     freq (   31) =      14.218008 [THz] =     474.261698 [cm-1]
     freq (   32) =      14.374299 [THz] =     479.475009 [cm-1]
     freq (   33) =      15.617316 [THz] =     520.937582 [cm-1]
     freq (   34) =      18.335602 [THz] =     611.609837 [cm-1]
     freq (   35) =      20.263228 [THz] =     675.908526 [cm-1]
     freq (   36) =      20.268464 [THz] =     676.083171 [cm-1]
     freq (   37) =      22.683851 [THz] =     756.651835 [cm-1]
     freq (   38) =      27.534739 [THz] =     918.460043 [cm-1]
     freq (   39) =      30.530060 [THz] =    1018.373192 [cm-1]
     freq (   40) =      30.697865 [THz] =    1023.970550 [cm-1]
     freq (   41) =      31.130890 [THz] =    1038.414725 [cm-1]
     freq (   42) =      31.259385 [THz] =    1042.700832 [cm-1]
 **************************************************************************

     Mode symmetry, D_2h (mmm)  point group:

     freq (   1-   1) =        -32.1  [cm-1]   --> B_3u            I  
     freq (   2-   2) =        -21.0  [cm-1]   --> B_1u            I  
     freq (   3-   3) =        -17.6  [cm-1]   --> B_2u            I  
     freq (   4-   4) =         59.3  [cm-1]   --> B_1u            I  
     freq (   5-   5) =         64.0  [cm-1]   --> A_u                
     freq (   6-   6) =         90.7  [cm-1]   --> A_g             R  
     freq (   7-   7) =        118.0  [cm-1]   --> B_3u            I  
     freq (   8-   8) =        130.1  [cm-1]   --> B_2g            R  
     freq (   9-   9) =        135.0  [cm-1]   --> B_3g            R  
     freq (  10-  10) =        140.5  [cm-1]   --> B_1g            R  
     freq (  11-  11) =        177.9  [cm-1]   --> A_g             R  
     freq (  12-  12) =        186.3  [cm-1]   --> B_2g            R  
     freq (  13-  13) =        207.5  [cm-1]   --> B_2u            I  
     freq (  14-  14) =        232.9  [cm-1]   --> B_1g            R  
     freq (  15-  15) =        246.0  [cm-1]   --> B_1u            I  
     freq (  16-  16) =        262.8  [cm-1]   --> A_u                
     freq (  17-  17) =        277.5  [cm-1]   --> B_2u            I  
     freq (  18-  18) =        278.8  [cm-1]   --> B_3g            R  
     freq (  19-  19) =        280.5  [cm-1]   --> B_3u            I  
     freq (  20-  20) =        283.1  [cm-1]   --> B_1g            R  
     freq (  21-  21) =        291.6  [cm-1]   --> A_g             R  
     freq (  22-  22) =        296.7  [cm-1]   --> B_2g            R  
     freq (  23-  23) =        346.7  [cm-1]   --> B_1u            I  
     freq (  24-  24) =        348.0  [cm-1]   --> B_2g            R  
     freq (  25-  25) =        354.9  [cm-1]   --> B_3u            I  
     freq (  26-  26) =        398.9  [cm-1]   --> A_g             R  
     freq (  27-  27) =        402.5  [cm-1]   --> B_1u            I  
     freq (  28-  28) =        468.1  [cm-1]   --> A_u                
     freq (  29-  29) =        470.5  [cm-1]   --> A_g             R  
     freq (  30-  30) =        471.6  [cm-1]   --> B_3u            I  
     freq (  31-  31) =        474.3  [cm-1]   --> B_2u            I  
     freq (  32-  32) =        479.5  [cm-1]   --> B_2g            R  
     freq (  33-  33) =        520.9  [cm-1]   --> A_g             R  
     freq (  34-  34) =        611.6  [cm-1]   --> B_3u            I  
     freq (  35-  35) =        675.9  [cm-1]   --> B_1g            R  
     freq (  36-  36) =        676.1  [cm-1]   --> B_3g            R  
     freq (  37-  37) =        756.7  [cm-1]   --> B_1u            I  
     freq (  38-  38) =        918.5  [cm-1]   --> B_2g            R  
     freq (  39-  39) =       1018.4  [cm-1]   --> B_1u            I  
     freq (  40-  40) =       1024.0  [cm-1]   --> B_3u            I  
     freq (  41-  41) =       1038.4  [cm-1]   --> B_2g            R  
     freq (  42-  42) =       1042.7  [cm-1]   --> A_g             R  

     PHONON       :      1h 0m CPU      1h 1m WALL

     INITIALIZATION: 
     phq_setup    :      0.06s CPU      0.09s WALL (       1 calls)
     phq_init     :      2.40s CPU      2.42s WALL (       1 calls)

     phq_init     :      2.40s CPU      2.42s WALL (       1 calls)
     set_drhoc    :      0.84s CPU      0.84s WALL (       3 calls)
     init_vloc    :      0.13s CPU      0.13s WALL (       1 calls)
     init_us_1    :      0.02s CPU      0.02s WALL (       1 calls)

     DIELECTRIC CONSTANT AND EFFECTIVE CHARGES:
     solve_e      :    294.99s CPU    305.13s WALL (       1 calls)
     dielec       :      0.01s CPU      0.01s WALL (       1 calls)
     zstar_eu     :     13.50s CPU     14.24s WALL (       1 calls)

     RAMAN COEFFICIENTS, THIRD-ORDER CHI:
     dhdrhopsi    :    603.29s CPU    613.35s WALL (       1 calls)
     dvpsi_e2     :      5.99s CPU      6.39s WALL (       1 calls)
     solve_e2     :    775.50s CPU    797.61s WALL (       1 calls)

     DYNAMICAL MATRIX:
     dynmat0      :      1.55s CPU      1.58s WALL (       1 calls)
     phqscf       :   1850.56s CPU   1905.66s WALL (       1 calls)
     dynmatrix    :      0.01s CPU      0.01s WALL (       1 calls)

     phqscf       :   1850.56s CPU   1905.66s WALL (       1 calls)
     solve_linter :   1842.15s CPU   1896.86s WALL (      42 calls)
     drhodv       :      8.27s CPU      8.55s WALL (      42 calls)

     dynmat0      :      1.55s CPU      1.58s WALL (       1 calls)
     dynmat_us    :      0.56s CPU      0.57s WALL (       1 calls)
     d2ionq       :      0.31s CPU      0.31s WALL (       1 calls)
     dynmatcc     :      0.64s CPU      0.66s WALL (       1 calls)

     dynmat_us    :      0.56s CPU      0.57s WALL (       1 calls)

     phqscf       :   1850.56s CPU   1905.66s WALL (       1 calls)
     solve_linter :   1842.15s CPU   1896.86s WALL (      42 calls)

     solve_linter :   1842.15s CPU   1896.86s WALL (      42 calls)
     dvqpsi_us    :     43.52s CPU     44.84s WALL (    1008 calls)
     ortho        :     10.47s CPU     10.69s WALL (    1788 calls)
     cgsolve      :   3134.53s CPU   3187.74s WALL (    2388 calls)
     incdrhoscf   :     39.52s CPU     41.67s WALL (    2232 calls)
     vpsifft      :     21.62s CPU     23.54s WALL (    1368 calls)
     dv_of_drho   :     19.44s CPU     21.35s WALL (     567 calls)
     mix_pot      :      5.60s CPU      9.77s WALL (     420 calls)
     psymdvscf    :    130.61s CPU    141.30s WALL (     384 calls)

     dvqpsi_us    :     43.52s CPU     44.84s WALL (    1008 calls)
     dvqpsi_us_on :     17.44s CPU     17.51s WALL (    1008 calls)

     cgsolve      :   3134.53s CPU   3187.74s WALL (    2388 calls)
     ch_psi       :   3048.73s CPU   3101.20s WALL (   77681 calls)

     ch_psi       :   3048.73s CPU   3101.20s WALL (   77681 calls)
     h_psi        :   2037.46s CPU   2078.65s WALL (  114543 calls)
     last         :   1030.60s CPU   1042.54s WALL (   77681 calls)

     h_psi        :   2037.46s CPU   2078.65s WALL (  114543 calls)
     add_vuspsi   :    480.69s CPU    482.48s WALL (  114543 calls)

     incdrhoscf   :     39.52s CPU     41.67s WALL (    2232 calls)


      General routines
     calbec       :   1338.64s CPU   1364.38s WALL (  231884 calls)
     fft          :     19.58s CPU     22.17s WALL (   11598 calls)
     ffts         :      1.78s CPU      1.83s WALL (    3904 calls)
     fftw         :    926.29s CPU    955.18s WALL ( 6286992 calls)
     davcio       :      4.10s CPU     11.21s WALL (   13243 calls)
     write_rec    :      0.46s CPU      1.35s WALL (     462 calls)


     PHONON       :      1h 0m CPU      1h 1m WALL


   This run was terminated on:  16:42:32  13Oct2024            

=------------------------------------------------------------------------------=
   JOB DONE.
=------------------------------------------------------------------------------=
