
     Program PWSCF v.6.5 starts on 14Nov2021 at 13:50:42 

     This program is part of the open-source Quantum ESPRESSO suite
     for quantum simulation of materials; please cite
         "P. Giannozzi et al., J. Phys.:Condens. Matter 21 395502 (2009);
         "P. Giannozzi et al., J. Phys.:Condens. Matter 29 465901 (2017);
          URL http://www.quantum-espresso.org", 
     in publications or presentations arising from this work. More details at
     http://www.quantum-espresso.org/quote

     Parallel version (MPI & OpenMP), running on      20 processor cores
     Number of MPI processes:                20
     Threads/MPI process:                     1

     MPI processes distributed on     1 nodes
     R & G space division:  proc/nbgrp/npool/nimage =      20
     Reading input from liv16o40_fi.rlx.in
Warning: card &CELL ignored
Warning: card     CELL_DYNAMICS  = "BFGS" ignored
Warning: card / ignored

     Current dimensions of program PWSCF are:
     Max number of different atomic species (ntypx) = 10
     Max number of k-points (npk) =  40000
     Max angular momentum in pseudopotentials (lmaxx) =  3
               file V.pbe-spnl-kjpaw_psl.1.0.0.UPF: wavefunction(s)  3P 3D renormalized
               file O.pbe-n-kjpaw_psl.1.0.0.UPF: wavefunction(s)  2S 2P renormalized

     Subspace diagonalization in iterative solution of the eigenvalue problem:
     a serial algorithm will be used

 
     Parallelization info
     --------------------
     sticks:   dense  smooth     PW     G-vecs:    dense   smooth      PW
     Min         604     242     65                71584    18116    2553
     Max         605     243     66                71591    18119    2556
     Sum       12097    4849   1311              1431777   362333   51093
 


     bravais-lattice index     =            0
     lattice parameter (alat)  =      13.4999  a.u.
     unit-cell volume          =    5116.4109 (a.u.)^3
     number of atoms/cell      =           57
     number of atomic types    =            3
     number of electrons       =       451.00
     number of Kohn-Sham states=          271
     kinetic-energy cutoff     =      65.0000  Ry
     charge density cutoff     =     650.0000  Ry
     convergence threshold     =      1.0E-10
     mixing beta               =       0.2000
     number of iterations used =            8  local-TF  mixing
     Exchange-correlation= SLA PW PBX PBC
                           (   1   4   3   4   0   0   0)
     nstep                     =          550


     celldm(1)=  13.499904  celldm(2)=   0.000000  celldm(3)=   0.000000
     celldm(4)=   0.000000  celldm(5)=   0.000000  celldm(6)=   0.000000

     crystal axes: (cart. coord. in units of alat)
               a(1) = (   1.000000   0.000000   0.000000 )  
               a(2) = (   0.000000   1.283680   0.000000 )  
               a(3) = (   0.000000   0.000000   1.620006 )  

     reciprocal axes: (cart. coord. in units 2 pi/alat)
               b(1) = (  1.000000  0.000000  0.000000 )  
               b(2) = (  0.000000  0.779010  0.000000 )  
               b(3) = (  0.000000  0.000000  0.617282 )  


     PseudoPot. # 1 for V  read from file:
     ~/pseudos/V.pbe-spnl-kjpaw_psl.1.0.0.UPF
     MD5 check sum: Not computed, couldn't open file
     Pseudo is Projector augmented-wave + core cor, Zval = 13.0
     Generated using "atomic" code by A. Dal Corso v.6.3
     Shape of augmentation charge: PSQ
     Using radial grid of 1181 points,  6 beta functions with: 
                l(1) =   0
                l(2) =   0
                l(3) =   1
                l(4) =   1
                l(5) =   2
                l(6) =   2
     Q(r) pseudized with 0 coefficients 


     PseudoPot. # 2 for O  read from file:
     ~/pseudos/O.pbe-n-kjpaw_psl.1.0.0.UPF
     MD5 check sum: Not computed, couldn't open file
     Pseudo is Projector augmented-wave + core cor, Zval =  6.0
     Generated using "atomic" code by A. Dal Corso v.6.3
     Shape of augmentation charge: PSQ
     Using radial grid of 1095 points,  4 beta functions with: 
                l(1) =   0
                l(2) =   0
                l(3) =   1
                l(4) =   1
     Q(r) pseudized with 0 coefficients 


     PseudoPot. # 3 for Li read from file:
     ~/pseudos/Li.pbe-s-kjpaw_psl.1.0.0.UPF
     MD5 check sum: Not computed, couldn't open file
     Pseudo is Projector augmented-wave, Zval =  3.0
     Generated using "atomic" code by A. Dal Corso v.6.3
     Shape of augmentation charge: PSQ
     Using radial grid of 1017 points,  4 beta functions with: 
                l(1) =   0
                l(2) =   0
                l(3) =   1
                l(4) =   1
     Q(r) pseudized with 0 coefficients 


     atomic species   valence    mass     pseudopotential
        V             13.00    50.94150     V ( 1.00)
        O              6.00    15.99940     O ( 1.00)
        Li             3.00     6.94100     Li( 1.00)

     No symmetry found



   Cartesian axes

     site n.     atom                  positions (alat units)
         1           V   tau(   1) = (   0.0000000   0.2492828   1.0503652  )
         2           V   tau(   2) = (   0.2500000   0.3925573   1.3796436  )
         3           V   tau(   3) = (   0.2500000   0.3925573   0.2403623  )
         4           V   tau(   4) = (   0.0000000   0.2492828   0.5696407  )
         5           O   tau(   5) = (   0.2500000   0.3157779   1.1039633  )
         6           O   tau(   6) = (   0.0000000   0.3260622   1.3260456  )
         7           O   tau(   7) = (   0.0000000   0.3260622   0.2939603  )
         8           O   tau(   8) = (   0.2500000   0.3157779   0.5160426  )
         9           O   tau(   9) = (   0.0000000   0.0267527   0.5763714  )
        10           O   tau(  10) = (   0.2500000   0.6150874   0.2336316  )
        11           O   tau(  11) = (   0.2500000   0.6150874   1.3863743  )
        12           O   tau(  12) = (   0.2500000   0.3221871   0.0000000  )
        13           O   tau(  13) = (   0.0000000   0.3196530   0.8100029  )
        14           O   tau(  14) = (   0.0000000   0.0267527   1.0436345  )
        15           V   tau(  15) = (   0.0000000   0.8911229   1.0503652  )
        16           V   tau(  16) = (   0.2500000   1.0343974   1.3796436  )
        17           V   tau(  17) = (   0.2500000   1.0343974   0.2403623  )
        18           V   tau(  18) = (   0.0000000   0.8911229   0.5696407  )
        19           O   tau(  19) = (   0.2500000   0.9576180   1.1039633  )
        20           O   tau(  20) = (   0.0000000   0.9679023   1.3260456  )
        21           O   tau(  21) = (   0.0000000   0.9679023   0.2939603  )
        22           O   tau(  22) = (   0.2500000   0.9576180   0.5160426  )
        23           O   tau(  23) = (   0.0000000   0.6685927   0.5763714  )
        24           O   tau(  24) = (   0.2500000   1.2569275   0.2336316  )
        25           O   tau(  25) = (   0.2500000   1.2569275   1.3863743  )
        26           O   tau(  26) = (   0.2500000   0.9640271   0.0000000  )
        27           O   tau(  27) = (   0.0000000   0.9614931   0.8100029  )
        28           O   tau(  28) = (   0.0000000   0.6685927   1.0436345  )
        29           V   tau(  29) = (   0.5000000   0.2492828   1.0503652  )
        30           V   tau(  30) = (   0.7500000   0.3925573   1.3796436  )
        31           V   tau(  31) = (   0.7500000   0.3925573   0.2403623  )
        32           V   tau(  32) = (   0.5000000   0.2492828   0.5696407  )
        33           O   tau(  33) = (   0.7500000   0.3157779   1.1039633  )
        34           O   tau(  34) = (   0.5000000   0.3260622   1.3260456  )
        35           O   tau(  35) = (   0.5000000   0.3260622   0.2939603  )
        36           O   tau(  36) = (   0.7500000   0.3157779   0.5160426  )
        37           O   tau(  37) = (   0.5000000   0.0267527   0.5763714  )
        38           O   tau(  38) = (   0.7500000   0.6150874   0.2336316  )
        39           O   tau(  39) = (   0.7500000   0.6150874   1.3863743  )
        40           O   tau(  40) = (   0.7500000   0.3221871   0.0000000  )
        41           O   tau(  41) = (   0.5000000   0.3196530   0.8100029  )
        42           O   tau(  42) = (   0.5000000   0.0267527   1.0436345  )
        43           V   tau(  43) = (   0.5000000   0.8911229   1.0503652  )
        44           V   tau(  44) = (   0.7500000   1.0343974   1.3796436  )
        45           V   tau(  45) = (   0.7500000   1.0343974   0.2403623  )
        46           V   tau(  46) = (   0.5000000   0.8911229   0.5696407  )
        47           O   tau(  47) = (   0.7500000   0.9576180   1.1039633  )
        48           O   tau(  48) = (   0.5000000   0.9679023   1.3260456  )
        49           O   tau(  49) = (   0.5000000   0.9679023   0.2939603  )
        50           O   tau(  50) = (   0.7500000   0.9576180   0.5160426  )
        51           O   tau(  51) = (   0.5000000   0.6685927   0.5763714  )
        52           O   tau(  52) = (   0.7500000   1.2569275   0.2336316  )
        53           O   tau(  53) = (   0.7500000   1.2569275   1.3863743  )
        54           O   tau(  54) = (   0.7500000   0.9640271   0.0000000  )
        55           O   tau(  55) = (   0.5000000   0.9614931   0.8100029  )
        56           O   tau(  56) = (   0.5000000   0.6685927   1.0436345  )
        57           Li  tau(  57) = (   0.2183196   0.5168877   0.8038094  )

     number of k points=     8  Gaussian smearing, width (Ry)=  0.0200
                       cart. coord. in units 2pi/alat
        k(    1) = (   0.0000000   0.0000000   0.0000000), wk =   0.2500000
        k(    2) = (   0.0000000   0.0000000  -0.3086409), wk =   0.2500000
        k(    3) = (   0.0000000  -0.3895051   0.0000000), wk =   0.2500000
        k(    4) = (   0.0000000  -0.3895051  -0.3086409), wk =   0.2500000
        k(    5) = (  -0.5000000   0.0000000   0.0000000), wk =   0.2500000
        k(    6) = (  -0.5000000   0.0000000  -0.3086409), wk =   0.2500000
        k(    7) = (  -0.5000000  -0.3895051   0.0000000), wk =   0.2500000
        k(    8) = (  -0.5000000  -0.3895051  -0.3086409), wk =   0.2500000

     Dense  grid:  1431777 G-vectors     FFT dimensions: ( 120, 144, 180)

     Smooth grid:   362333 G-vectors     FFT dimensions: (  72,  90, 120)

     Estimated max dynamical RAM per process >     551.61 MB

     Estimated total dynamical RAM >      10.77 GB

     Check: negative core charge=   -0.000001

     Initial potential from superposition of free atoms

     starting charge  450.98080, renormalised to  451.00000
     Starting wfcs are  325 randomized atomic wfcs
     Checking if some PAW data can be deallocated... 

     total cpu time spent up to now is       24.7 secs

     Self-consistent Calculation

     iteration #  1     ecut=    65.00 Ry     beta= 0.20
     Davidson diagonalization with overlap
     ethr =  1.00E-02,  avg # of iterations =  2.0

     total cpu time spent up to now is       71.8 secs

     total energy              =   -5110.28609176 Ry
     Harris-Foulkes estimate   =   -5114.90739811 Ry
     estimated scf accuracy    <      33.15556626 Ry

     iteration #  2     ecut=    65.00 Ry     beta= 0.20
     Davidson diagonalization with overlap
     ethr =  7.35E-03,  avg # of iterations =  1.0

     total cpu time spent up to now is      110.9 secs

     total energy              =   -5103.51851849 Ry
     Harris-Foulkes estimate   =   -5111.39646490 Ry
     estimated scf accuracy    <      18.02254535 Ry

     iteration #  3     ecut=    65.00 Ry     beta= 0.20
     Davidson diagonalization with overlap
     ethr =  4.00E-03,  avg # of iterations =  4.6

     total cpu time spent up to now is      190.1 secs

     total energy              =   -5108.95411511 Ry
     Harris-Foulkes estimate   =   -5113.09035610 Ry
     estimated scf accuracy    <      40.83143380 Ry

     iteration #  4     ecut=    65.00 Ry     beta= 0.20
     Davidson diagonalization with overlap
     ethr =  4.00E-03,  avg # of iterations =  1.0

     total cpu time spent up to now is      228.4 secs

     total energy              =   -5108.20509773 Ry
     Harris-Foulkes estimate   =   -5109.98304414 Ry
     estimated scf accuracy    <      10.84260745 Ry

     iteration #  5     ecut=    65.00 Ry     beta= 0.20
     Davidson diagonalization with overlap
     ethr =  2.40E-03,  avg # of iterations =  4.0

     total cpu time spent up to now is      288.1 secs

     total energy              =   -5109.75651179 Ry
     Harris-Foulkes estimate   =   -5109.74834814 Ry
     estimated scf accuracy    <       0.56540938 Ry

     iteration #  6     ecut=    65.00 Ry     beta= 0.20
     Davidson diagonalization with overlap
     ethr =  1.25E-04,  avg # of iterations =  6.0

     negative rho (up, down):  6.815E-04 0.000E+00

     total cpu time spent up to now is      394.8 secs

     total energy              =   -5109.72911174 Ry
     Harris-Foulkes estimate   =   -5110.43039118 Ry
     estimated scf accuracy    <       3.38747819 Ry

     iteration #  7     ecut=    65.00 Ry     beta= 0.20
     Davidson diagonalization with overlap
     ethr =  1.25E-04,  avg # of iterations =  5.2

     negative rho (up, down):  2.631E-03 0.000E+00

     total cpu time spent up to now is      453.9 secs

     total energy              =   -5109.66088563 Ry
     Harris-Foulkes estimate   =   -5109.87266689 Ry
     estimated scf accuracy    <       0.72175893 Ry

     iteration #  8     ecut=    65.00 Ry     beta= 0.20
     Davidson diagonalization with overlap
     ethr =  1.25E-04,  avg # of iterations =  4.6

     negative rho (up, down):  1.292E-03 0.000E+00

     total cpu time spent up to now is      531.1 secs

     total energy              =   -5109.93387167 Ry
     Harris-Foulkes estimate   =   -5109.97541498 Ry
     estimated scf accuracy    <       0.44907959 Ry

     iteration #  9     ecut=    65.00 Ry     beta= 0.20
     Davidson diagonalization with overlap
     ethr =  9.96E-05,  avg # of iterations =  1.0

     negative rho (up, down):  1.349E-03 0.000E+00

     total cpu time spent up to now is      571.0 secs

     total energy              =   -5109.90529226 Ry
     Harris-Foulkes estimate   =   -5109.94224466 Ry
     estimated scf accuracy    <       0.21360805 Ry

     iteration # 10     ecut=    65.00 Ry     beta= 0.20
     Davidson diagonalization with overlap
     ethr =  4.74E-05,  avg # of iterations =  4.0

     negative rho (up, down):  1.553E-03 0.000E+00

     total cpu time spent up to now is      624.6 secs

     total energy              =   -5109.92314466 Ry
     Harris-Foulkes estimate   =   -5109.92525647 Ry
     estimated scf accuracy    <       0.02025547 Ry

     iteration # 11     ecut=    65.00 Ry     beta= 0.20
     Davidson diagonalization with overlap
     ethr =  4.49E-06,  avg # of iterations =  5.9

     negative rho (up, down):  1.383E-03 0.000E+00

     total cpu time spent up to now is      717.3 secs

     total energy              =   -5109.94055074 Ry
     Harris-Foulkes estimate   =   -5109.93747084 Ry
     estimated scf accuracy    <       0.00675905 Ry

     iteration # 12     ecut=    65.00 Ry     beta= 0.20
     Davidson diagonalization with overlap
     ethr =  1.50E-06,  avg # of iterations =  1.1

     negative rho (up, down):  1.122E-03 0.000E+00

     total cpu time spent up to now is      756.4 secs

     total energy              =   -5109.94392477 Ry
     Harris-Foulkes estimate   =   -5109.94074839 Ry
     estimated scf accuracy    <       0.01005524 Ry

     iteration # 13     ecut=    65.00 Ry     beta= 0.20
     Davidson diagonalization with overlap
     ethr =  1.50E-06,  avg # of iterations =  4.4

     negative rho (up, down):  1.144E-03 0.000E+00

     total cpu time spent up to now is      817.0 secs

     total energy              =   -5109.94074684 Ry
     Harris-Foulkes estimate   =   -5109.94543060 Ry
     estimated scf accuracy    <       0.03394266 Ry

     iteration # 14     ecut=    65.00 Ry     beta= 0.20
     Davidson diagonalization with overlap
     ethr =  1.50E-06,  avg # of iterations =  1.8

     negative rho (up, down):  1.095E-03 0.000E+00

     total cpu time spent up to now is      858.8 secs

     total energy              =   -5109.94090378 Ry
     Harris-Foulkes estimate   =   -5109.94182781 Ry
     estimated scf accuracy    <       0.01032383 Ry

     iteration # 15     ecut=    65.00 Ry     beta= 0.20
     Davidson diagonalization with overlap
     ethr =  1.50E-06,  avg # of iterations =  5.0

     negative rho (up, down):  1.134E-03 0.000E+00

     total cpu time spent up to now is      926.3 secs

     total energy              =   -5109.94230318 Ry
     Harris-Foulkes estimate   =   -5109.94229531 Ry
     estimated scf accuracy    <       0.00091808 Ry

     iteration # 16     ecut=    65.00 Ry     beta= 0.20
     Davidson diagonalization with overlap
     ethr =  2.04E-07,  avg # of iterations =  5.4

     negative rho (up, down):  1.180E-03 0.000E+00

     total cpu time spent up to now is      991.8 secs

     total energy              =   -5109.94248011 Ry
     Harris-Foulkes estimate   =   -5109.94243124 Ry
     estimated scf accuracy    <       0.00039944 Ry

     iteration # 17     ecut=    65.00 Ry     beta= 0.20
     Davidson diagonalization with overlap
     ethr =  8.86E-08,  avg # of iterations =  2.9

     negative rho (up, down):  1.231E-03 0.000E+00

     total cpu time spent up to now is     1041.1 secs

     total energy              =   -5109.94252981 Ry
     Harris-Foulkes estimate   =   -5109.94251160 Ry
     estimated scf accuracy    <       0.00026450 Ry

     iteration # 18     ecut=    65.00 Ry     beta= 0.20
     Davidson diagonalization with overlap
     ethr =  5.86E-08,  avg # of iterations =  4.6

     negative rho (up, down):  1.255E-03 0.000E+00

     total cpu time spent up to now is     1100.0 secs

     total energy              =   -5109.94261196 Ry
     Harris-Foulkes estimate   =   -5109.94256453 Ry
     estimated scf accuracy    <       0.00003880 Ry

     iteration # 19     ecut=    65.00 Ry     beta= 0.20
     Davidson diagonalization with overlap
     ethr =  8.60E-09,  avg # of iterations =  5.0

     negative rho (up, down):  1.251E-03 0.000E+00

     total cpu time spent up to now is     1191.6 secs

     total energy              =   -5109.94266392 Ry
     Harris-Foulkes estimate   =   -5109.94263510 Ry
     estimated scf accuracy    <       0.00003525 Ry

     iteration # 20     ecut=    65.00 Ry     beta= 0.20
     Davidson diagonalization with overlap
     ethr =  7.82E-09,  avg # of iterations =  3.4

     negative rho (up, down):  1.266E-03 0.000E+00

     total cpu time spent up to now is     1241.9 secs

     total energy              =   -5109.94268861 Ry
     Harris-Foulkes estimate   =   -5109.94266953 Ry
     estimated scf accuracy    <       0.00001162 Ry

     iteration # 21     ecut=    65.00 Ry     beta= 0.20
     Davidson diagonalization with overlap
     ethr =  2.58E-09,  avg # of iterations =  5.5

     negative rho (up, down):  1.292E-03 0.000E+00

     total cpu time spent up to now is     1338.1 secs

     total energy              =   -5109.94269608 Ry
     Harris-Foulkes estimate   =   -5109.94269925 Ry
     estimated scf accuracy    <       0.00005075 Ry

     iteration # 22     ecut=    65.00 Ry     beta= 0.20
     Davidson diagonalization with overlap
     ethr =  2.58E-09,  avg # of iterations =  5.5

     negative rho (up, down):  1.305E-03 0.000E+00

     total cpu time spent up to now is     1400.8 secs

     total energy              =   -5109.94270263 Ry
     Harris-Foulkes estimate   =   -5109.94269864 Ry
     estimated scf accuracy    <       0.00001428 Ry

     iteration # 23     ecut=    65.00 Ry     beta= 0.20
     Davidson diagonalization with overlap
     ethr =  2.58E-09,  avg # of iterations =  4.4

     negative rho (up, down):  1.304E-03 0.000E+00

     total cpu time spent up to now is     1471.1 secs

     total energy              =   -5109.94271245 Ry
     Harris-Foulkes estimate   =   -5109.94270602 Ry
     estimated scf accuracy    <       0.00000213 Ry

     iteration # 24     ecut=    65.00 Ry     beta= 0.20
     Davidson diagonalization with overlap
     ethr =  4.72E-10,  avg # of iterations =  3.4

     negative rho (up, down):  1.294E-03 0.000E+00

     total cpu time spent up to now is     1522.1 secs

     total energy              =   -5109.94271672 Ry
     Harris-Foulkes estimate   =   -5109.94271260 Ry
     estimated scf accuracy    <       0.00000164 Ry

     iteration # 25     ecut=    65.00 Ry     beta= 0.20
     Davidson diagonalization with overlap
     ethr =  3.64E-10,  avg # of iterations =  3.8

     negative rho (up, down):  1.297E-03 0.000E+00

     total cpu time spent up to now is     1572.8 secs

     total energy              =   -5109.94271957 Ry
     Harris-Foulkes estimate   =   -5109.94271688 Ry
     estimated scf accuracy    <       0.00000048 Ry

     iteration # 26     ecut=    65.00 Ry     beta= 0.20
     Davidson diagonalization with overlap
     ethr =  1.05E-10,  avg # of iterations =  4.2

     negative rho (up, down):  1.301E-03 0.000E+00

     total cpu time spent up to now is     1641.9 secs

     total energy              =   -5109.94272145 Ry
     Harris-Foulkes estimate   =   -5109.94271969 Ry
     estimated scf accuracy    <       0.00000019 Ry

     iteration # 27     ecut=    65.00 Ry     beta= 0.20
     Davidson diagonalization with overlap
     ethr =  4.15E-11,  avg # of iterations =  2.9

     negative rho (up, down):  1.303E-03 0.000E+00

     total cpu time spent up to now is     1689.6 secs

     total energy              =   -5109.94272247 Ry
     Harris-Foulkes estimate   =   -5109.94272146 Ry
     estimated scf accuracy    <       0.00000011 Ry

     iteration # 28     ecut=    65.00 Ry     beta= 0.20
     Davidson diagonalization with overlap
     ethr =  2.48E-11,  avg # of iterations =  4.1

     negative rho (up, down):  1.305E-03 0.000E+00

     total cpu time spent up to now is     1764.1 secs

     total energy              =   -5109.94272316 Ry
     Harris-Foulkes estimate   =   -5109.94272252 Ry
     estimated scf accuracy    <       0.00000015 Ry

     iteration # 29     ecut=    65.00 Ry     beta= 0.20
     Davidson diagonalization with overlap
     ethr =  2.48E-11,  avg # of iterations =  1.0

     negative rho (up, down):  1.307E-03 0.000E+00

     total cpu time spent up to now is     1802.8 secs

     total energy              =   -5109.94272350 Ry
     Harris-Foulkes estimate   =   -5109.94272316 Ry
     estimated scf accuracy    <       0.00000008 Ry

     iteration # 30     ecut=    65.00 Ry     beta= 0.20
     Davidson diagonalization with overlap
     ethr =  1.80E-11,  avg # of iterations =  4.9

     negative rho (up, down):  1.308E-03 0.000E+00

     total cpu time spent up to now is     1881.8 secs

     total energy              =   -5109.94272383 Ry
     Harris-Foulkes estimate   =   -5109.94272353 Ry
     estimated scf accuracy    <       0.00000006 Ry

     iteration # 31     ecut=    65.00 Ry     beta= 0.20
     Davidson diagonalization with overlap
     ethr =  1.27E-11,  avg # of iterations =  1.0

     negative rho (up, down):  1.309E-03 0.000E+00

     total cpu time spent up to now is     1921.1 secs

     total energy              =   -5109.94272402 Ry
     Harris-Foulkes estimate   =   -5109.94272384 Ry
     estimated scf accuracy    <       0.00000001 Ry

     iteration # 32     ecut=    65.00 Ry     beta= 0.20
     Davidson diagonalization with overlap
     ethr =  2.52E-12,  avg # of iterations =  4.6

     negative rho (up, down):  1.309E-03 0.000E+00

     total cpu time spent up to now is     2005.5 secs

     total energy              =   -5109.94272416 Ry
     Harris-Foulkes estimate   =   -5109.94272403 Ry
     estimated scf accuracy    <          5.9E-09 Ry

     iteration # 33     ecut=    65.00 Ry     beta= 0.20
     Davidson diagonalization with overlap
     ethr =  1.30E-12,  avg # of iterations =  1.6

     negative rho (up, down):  1.310E-03 0.000E+00

     total cpu time spent up to now is     2046.3 secs

     total energy              =   -5109.94272424 Ry
     Harris-Foulkes estimate   =   -5109.94272416 Ry
     estimated scf accuracy    <          2.2E-09 Ry

     iteration # 34     ecut=    65.00 Ry     beta= 0.20
     Davidson diagonalization with overlap
     ethr =  4.91E-13,  avg # of iterations =  4.2

     negative rho (up, down):  1.311E-03 0.000E+00

     total cpu time spent up to now is     2122.5 secs

     total energy              =   -5109.94272429 Ry
     Harris-Foulkes estimate   =   -5109.94272424 Ry
     estimated scf accuracy    <          1.1E-09 Ry

     iteration # 35     ecut=    65.00 Ry     beta= 0.20
     Davidson diagonalization with overlap
     ethr =  2.52E-13,  avg # of iterations =  1.0

     negative rho (up, down):  1.311E-03 0.000E+00

     total cpu time spent up to now is     2162.1 secs

     total energy              =   -5109.94272432 Ry
     Harris-Foulkes estimate   =   -5109.94272429 Ry
     estimated scf accuracy    <          6.2E-10 Ry

     iteration # 36     ecut=    65.00 Ry     beta= 0.20
     Davidson diagonalization with overlap
     ethr =  1.37E-13,  avg # of iterations =  5.0

     negative rho (up, down):  1.311E-03 0.000E+00

     total cpu time spent up to now is     2245.2 secs

     total energy              =   -5109.94272435 Ry
     Harris-Foulkes estimate   =   -5109.94272433 Ry
     estimated scf accuracy    <          5.1E-10 Ry

     iteration # 37     ecut=    65.00 Ry     beta= 0.20
     Davidson diagonalization with overlap
     ethr =  1.14E-13,  avg # of iterations =  1.0

     negative rho (up, down):  1.311E-03 0.000E+00

     total cpu time spent up to now is     2283.8 secs

     total energy              =   -5109.94272436 Ry
     Harris-Foulkes estimate   =   -5109.94272435 Ry
     estimated scf accuracy    <          4.7E-10 Ry

     iteration # 38     ecut=    65.00 Ry     beta= 0.20
     Davidson diagonalization with overlap
     ethr =  1.03E-13,  avg # of iterations =  2.6

     negative rho (up, down):  1.311E-03 0.000E+00

     total cpu time spent up to now is     2329.2 secs

     total energy              =   -5109.94272437 Ry
     Harris-Foulkes estimate   =   -5109.94272436 Ry
     estimated scf accuracy    <          1.0E-10 Ry

     iteration # 39     ecut=    65.00 Ry     beta= 0.20
     Davidson diagonalization with overlap
     ethr =  1.00E-13,  avg # of iterations =  1.9

     negative rho (up, down):  1.312E-03 0.000E+00

     total cpu time spent up to now is     2371.9 secs

     End of self-consistent calculation

          k = 0.0000 0.0000 0.0000 ( 45283 PWs)   bands (ev):

   -60.2625 -60.2467 -60.2080 -60.1961 -60.1955 -60.1891 -60.1676 -60.1607
   -60.1268 -60.1198 -60.0931 -60.0889 -60.0885 -60.0844 -60.0796 -60.0760
   -40.7333 -34.3416 -34.3222 -34.2687 -34.2545 -34.2388 -34.2302 -34.2021
   -34.1940 -34.1520 -34.1433 -34.1357 -34.1178 -34.1102 -34.1090 -34.1060
   -34.1025 -34.0988 -34.0969 -34.0753 -34.0734 -34.0731 -34.0698 -34.0611
   -34.0608 -34.0524 -34.0473 -34.0297 -34.0245 -34.0092 -33.9968 -33.9950
   -33.9835 -33.9764 -33.9644 -33.9605 -33.9544 -33.9539 -33.9489 -33.9416
   -33.9346 -33.9269 -33.9149 -33.9141 -33.9066 -33.9029 -33.8975 -33.8850
   -33.8807 -13.8358 -13.7040 -13.6940 -13.5861 -13.0861 -12.8886 -12.8824
   -12.8071 -12.7955 -12.7589 -12.6775 -12.6537 -12.6124 -12.6117 -12.5799
   -12.5771 -12.5443 -12.5180 -12.5152 -12.4139 -12.4066 -12.3766 -12.3679
   -12.3212 -12.2729 -12.2430 -12.1505 -12.1297 -12.0630 -12.0365 -11.9836
   -11.9576 -11.9137 -11.9057 -11.8759 -11.8675 -11.8499 -11.8388 -11.8251
   -11.8085  -0.9565  -0.8476  -0.7664  -0.7601  -0.7196  -0.6356  -0.6260
    -0.6239  -0.5967  -0.5852  -0.5777  -0.5577  -0.5373  -0.5029  -0.4981
    -0.4864  -0.4169  -0.4045  -0.3094  -0.2960  -0.2301  -0.1861  -0.0791
     0.0244   0.0487   0.1260   0.1904   0.1913   0.2247   0.2502   0.3182
     0.3680   0.3943   0.4089   0.4345   0.4419   0.6285   0.7155   0.7202
     0.8133   0.8224   0.8741   0.8870   0.9117   1.0061   1.0646   1.0869
     1.0949   1.1257   1.1375   1.1691   1.1830   1.2415   1.2963   1.3221
     1.3244   1.3735   1.4209   1.4244   1.4413   1.4515   1.5070   1.5319
     1.5648   1.5910   1.6249   1.6587   1.7100   1.7784   1.7953   1.8039
     1.8642   1.9117   1.9707   2.0039   2.0373   2.0549   2.0645   2.0871
     2.1101   2.1776   2.2346   2.2729   2.2846   2.2997   2.3609   2.3865
     2.4730   2.4761   2.5399   2.5954   2.6045   2.6110   2.6934   2.7859
     2.8051   2.8111   2.8163   2.8169   2.8462   2.8917   2.9006   2.9500
     2.9733   3.0238   3.0502   3.0841   3.1652   3.1965   3.1989   3.2863
     3.3169   3.3284   3.3415   3.4156   3.4809   3.4932   3.5522   3.6796
     3.6905   5.6022   5.6983   5.8145   5.9046   6.0975   6.1047   6.1750
     6.1871   6.7131   6.7803   6.8606   6.9109   6.9445   7.0200   7.1223
     7.1568   7.1927   7.1980   7.2578   7.3019   7.3235   7.3441   7.3579
     7.4008   7.4361   7.4447   7.4730   7.5230   7.5327   7.5404   7.7781
     7.8019   7.8635   7.8644   7.8906   7.9059   7.9082   7.9235   7.9389
     7.9994   8.0141   8.1122   8.2285   8.2461   8.2591   8.2950

          k = 0.0000 0.0000-0.3086 ( 45388 PWs)   bands (ev):

   -60.2625 -60.2467 -60.2080 -60.1961 -60.1955 -60.1891 -60.1676 -60.1607
   -60.1268 -60.1198 -60.0931 -60.0889 -60.0885 -60.0844 -60.0797 -60.0760
   -40.7333 -34.3415 -34.3223 -34.2687 -34.2545 -34.2387 -34.2303 -34.2020
   -34.1941 -34.1513 -34.1441 -34.1348 -34.1163 -34.1108 -34.1101 -34.1073
   -34.1030 -34.0977 -34.0948 -34.0757 -34.0698 -34.0697 -34.0677 -34.0632
   -34.0629 -34.0555 -34.0489 -34.0351 -34.0338 -34.0090 -33.9973 -33.9866
   -33.9821 -33.9758 -33.9588 -33.9574 -33.9536 -33.9531 -33.9508 -33.9438
   -33.9329 -33.9280 -33.9169 -33.9169 -33.9074 -33.9028 -33.8977 -33.8850
   -33.8807 -13.7945 -13.7463 -13.6584 -13.6388 -13.0803 -12.8835 -12.8639
   -12.8119 -12.7923 -12.7553 -12.6590 -12.6368 -12.6298 -12.6164 -12.5824
   -12.5753 -12.5700 -12.5146 -12.5106 -12.4171 -12.4027 -12.3882 -12.3674
   -12.3200 -12.2731 -12.2432 -12.1506 -12.1301 -12.0610 -12.0406 -11.9832
   -11.9583 -11.9128 -11.9045 -11.8746 -11.8665 -11.8492 -11.8341 -11.8274
   -11.8120  -0.9570  -0.8505  -0.7603  -0.7592  -0.7231  -0.6331  -0.6316
    -0.6267  -0.6028  -0.5995  -0.5725  -0.5630  -0.5440  -0.5374  -0.4926
    -0.4632  -0.4327  -0.3835  -0.3503  -0.2516  -0.2206  -0.1769  -0.0966
    -0.0043   0.0464   0.0729   0.1751   0.2031   0.2164   0.2538   0.3052
     0.3133   0.3748   0.4668   0.5060   0.6097   0.6647   0.7492   0.8031
     0.8121   0.8408   0.8930   0.9152   1.0061   1.0105   1.0185   1.0361
     1.0696   1.0733   1.0859   1.1083   1.1148   1.1533   1.1554   1.1650
     1.1938   1.3807   1.4295   1.4531   1.5168   1.5328   1.5748   1.5848
     1.6437   1.6715   1.7314   1.7583   1.7886   1.8091   1.8284   1.8961
     1.9555   1.9809   2.0016   2.0072   2.0181   2.0437   2.0680   2.0937
     2.0978   2.1338   2.1732   2.1773   2.2059   2.2158   2.2447   2.3180
     2.3990   2.4018   2.4507   2.4552   2.5001   2.5627   2.6146   2.8048
     2.8172   2.8255   2.8363   2.8649   2.9049   2.9371   3.0179   3.0280
     3.0406   3.0859   3.1055   3.1464   3.1563   3.1828   3.2014   3.2128
     3.2213   3.2432   3.3399   3.3881   3.5455   3.5500   3.5667   3.6821
     3.7030   5.6362   5.7310   5.7727   5.8666   6.1486   6.1543   6.2306
     6.2510   6.6902   6.7467   6.8250   6.8725   6.9609   7.0308   7.1456
     7.1890   7.2181   7.2352   7.2681   7.3096   7.3520   7.3699   7.3810
     7.4046   7.4134   7.4364   7.4501   7.4780   7.4834   7.5321   7.5370
     7.5873   7.7732   7.7938   7.9012   7.9300   7.9430   7.9733   8.0207
     8.0216   8.2312   8.2588   8.2617   8.2934   8.3072   8.3522

          k = 0.0000-0.3895 0.0000 ( 45328 PWs)   bands (ev):

   -60.2625 -60.2467 -60.2080 -60.1961 -60.1955 -60.1891 -60.1676 -60.1607
   -60.1268 -60.1198 -60.0931 -60.0889 -60.0885 -60.0844 -60.0797 -60.0760
   -40.7333 -34.3416 -34.3223 -34.2687 -34.2545 -34.2388 -34.2302 -34.2021
   -34.1940 -34.1520 -34.1433 -34.1357 -34.1178 -34.1103 -34.1089 -34.1062
   -34.1026 -34.0988 -34.0969 -34.0753 -34.0734 -34.0732 -34.0698 -34.0611
   -34.0608 -34.0524 -34.0473 -34.0297 -34.0245 -34.0091 -33.9968 -33.9950
   -33.9835 -33.9764 -33.9644 -33.9605 -33.9544 -33.9539 -33.9489 -33.9416
   -33.9346 -33.9270 -33.9149 -33.9141 -33.9066 -33.9029 -33.8975 -33.8849
   -33.8807 -13.8239 -13.7165 -13.6839 -13.5967 -13.0834 -12.8854 -12.8784
   -12.8064 -12.7999 -12.7601 -12.6753 -12.6538 -12.6167 -12.6042 -12.5838
   -12.5744 -12.5487 -12.5183 -12.5153 -12.4105 -12.4076 -12.3803 -12.3629
   -12.3275 -12.2727 -12.2424 -12.1496 -12.1272 -12.0631 -12.0371 -11.9841
   -11.9626 -11.9101 -11.8968 -11.8672 -11.8566 -11.8519 -11.8430 -11.8392
   -11.8235  -0.9536  -0.8461  -0.7663  -0.7590  -0.7182  -0.6257  -0.6247
    -0.6231  -0.5900  -0.5866  -0.5794  -0.5724  -0.5354  -0.5072  -0.4903
    -0.4379  -0.4123  -0.3734  -0.3146  -0.2382  -0.1457  -0.1168   0.0128
     0.0556   0.1656   0.1711   0.2044   0.2343   0.3194   0.3704   0.3809
     0.4189   0.4524   0.5158   0.5244   0.5448   0.5862   0.5980   0.6276
     0.6341   0.6613   0.6728   0.7044   0.7079   0.7591   0.8312   0.8877
     0.9463   1.1218   1.1837   1.2303   1.2377   1.2687   1.2901   1.3059
     1.3187   1.3747   1.3973   1.4030   1.4564   1.4992   1.5219   1.5458
     1.5592   1.5714   1.5789   1.6044   1.6087   1.6362   1.6637   1.7609
     1.8663   1.9970   2.0109   2.0286   2.0485   2.1505   2.1781   2.1908
     2.2730   2.2983   2.3372   2.3430   2.3645   2.4272   2.4338   2.4362
     2.4665   2.4711   2.4948   2.5207   2.5511   2.5630   2.6874   2.8054
     2.8175   2.8229   2.8313   2.8437   2.8532   2.8926   2.9557   2.9723
     3.0587   3.0955   3.1034   3.1253   3.2089   3.2314   3.2341   3.2577
     3.2632   3.2985   3.3262   3.3566   3.3662   3.4462   3.4625   3.4956
     3.5066   5.6397   5.6578   5.8489   5.8729   6.0956   6.0984   6.1731
     6.1811   6.7353   6.7567   6.8759   6.9015   6.9500   7.0112   7.1623
     7.1660   7.1793   7.1867   7.2716   7.3341   7.3530   7.3707   7.4142
     7.4241   7.4459   7.4573   7.4626   7.4634   7.5230   7.5374   7.8544
     7.8690   7.8847   7.8884   7.9232   7.9282   7.9360   7.9460   7.9491
     7.9564   8.0174   8.0279   8.2358   8.2625   8.2910   8.3005

          k = 0.0000-0.3895-0.3086 ( 45312 PWs)   bands (ev):

   -60.2625 -60.2467 -60.2080 -60.1961 -60.1955 -60.1891 -60.1676 -60.1607
   -60.1268 -60.1198 -60.0931 -60.0889 -60.0885 -60.0844 -60.0796 -60.0760
   -40.7333 -34.3415 -34.3222 -34.2687 -34.2545 -34.2387 -34.2303 -34.2020
   -34.1941 -34.1513 -34.1440 -34.1349 -34.1163 -34.1106 -34.1101 -34.1074
   -34.1030 -34.0977 -34.0948 -34.0757 -34.0697 -34.0696 -34.0676 -34.0631
   -34.0629 -34.0555 -34.0489 -34.0351 -34.0338 -34.0090 -33.9973 -33.9866
   -33.9821 -33.9758 -33.9588 -33.9573 -33.9536 -33.9530 -33.9508 -33.9437
   -33.9329 -33.9280 -33.9169 -33.9168 -33.9074 -33.9028 -33.8977 -33.8850
   -33.8807 -13.7842 -13.7339 -13.6693 -13.6517 -13.0776 -12.8810 -12.8599
   -12.8110 -12.7975 -12.7564 -12.6591 -12.6288 -12.6286 -12.6089 -12.5886
   -12.5819 -12.5726 -12.5149 -12.5106 -12.4147 -12.4028 -12.3918 -12.3624
   -12.3262 -12.2728 -12.2427 -12.1495 -12.1277 -12.0611 -12.0405 -11.9838
   -11.9631 -11.9093 -11.8969 -11.8667 -11.8567 -11.8512 -11.8433 -11.8352
   -11.8260  -0.9547  -0.8494  -0.7585  -0.7577  -0.7215  -0.6296  -0.6287
    -0.6172  -0.6004  -0.5875  -0.5853  -0.5771  -0.5436  -0.5250  -0.4927
    -0.4611  -0.4287  -0.2690  -0.2575  -0.2112  -0.1665  -0.1599  -0.1413
    -0.0970   0.2204   0.2389   0.2920   0.3700   0.3929   0.4036   0.4115
     0.4226   0.4336   0.4611   0.4757   0.4960   0.4993   0.5441   0.6475
     0.6788   0.6916   0.7235   0.7295   0.7369   0.7747   0.8562   0.8651
     0.9356   1.1537   1.1995   1.2309   1.2504   1.2662   1.2787   1.2886
     1.3084   1.3201   1.3318   1.3460   1.3583   1.3760   1.4534   1.5283
     1.5686   1.5763   1.6574   1.7216   1.7302   1.7755   1.8970   1.9679
     1.9969   2.0052   2.0426   2.0579   2.0689   2.0824   2.1067   2.1147
     2.1347   2.1616   2.1739   2.1969   2.2087   2.2145   2.2886   2.2931
     2.3444   2.6533   2.7283   2.7404   2.7498   2.7763   2.7971   2.8091
     2.8188   2.8262   2.8304   2.8386   2.8498   2.8709   2.8751   2.8906
     2.9016   2.9272   3.0325   3.0888   3.0989   3.1988   3.2463   3.3110
     3.3369   3.3542   3.3702   3.3812   3.4281   3.4388   3.4605   3.5258
     3.5322   5.6744   5.6923   5.8069   5.8319   6.1494   6.1529   6.2309
     6.2518   6.7032   6.7274   6.8395   6.8546   6.9656   7.0270   7.1564
     7.1794   7.2797   7.2881   7.3273   7.3417   7.3509   7.3577   7.3756
     7.3867   7.4172   7.4626   7.4836   7.5002   7.5041   7.5177   7.5236
     7.5374   7.8383   7.8468   7.8565   7.8634   7.9664   8.0067   8.0497
     8.0613   8.2339   8.2656   8.2896   8.3017   8.4279   8.4423

          k =-0.5000 0.0000 0.0000 ( 45262 PWs)   bands (ev):

   -60.2624 -60.2467 -60.2080 -60.1961 -60.1955 -60.1890 -60.1676 -60.1608
   -60.1268 -60.1198 -60.0931 -60.0889 -60.0884 -60.0843 -60.0797 -60.0761
   -40.7333 -34.3415 -34.3222 -34.2689 -34.2547 -34.2387 -34.2301 -34.2024
   -34.1943 -34.1516 -34.1429 -34.1351 -34.1190 -34.1107 -34.1087 -34.1054
   -34.0997 -34.0947 -34.0906 -34.0728 -34.0711 -34.0687 -34.0625 -34.0498
   -34.0488 -34.0381 -34.0326 -34.0292 -34.0285 -34.0236 -34.0177 -34.0161
   -34.0068 -33.9809 -33.9598 -33.9570 -33.9535 -33.9451 -33.9408 -33.9323
   -33.9186 -33.9143 -33.9139 -33.9129 -33.9111 -33.9079 -33.9072 -33.9063
   -33.9018 -13.5688 -13.4398 -13.4168 -13.3799 -13.3471 -13.2746 -13.2538
   -13.2154 -12.9660 -12.7945 -12.6294 -12.5903 -12.5737 -12.5585 -12.4657
   -12.4604 -12.4518 -12.4494 -12.4429 -12.4317 -12.4167 -12.3924 -12.3664
   -12.3547 -12.2677 -12.2392 -12.1550 -12.1343 -12.0422 -12.0158 -12.0079
   -11.9839 -11.9154 -11.9057 -11.8783 -11.8665 -11.8489 -11.8374 -11.8236
   -11.8062  -1.1319  -1.1017  -1.0886  -1.0499  -1.0477  -1.0416  -1.0109
    -1.0084  -0.5541  -0.5394  -0.4412  -0.3610  -0.3296  -0.3221  -0.3203
    -0.2763  -0.2715  -0.2424  -0.2017  -0.1756  -0.1310  -0.1229   0.0432
     0.1169   0.1901   0.1965   0.2460   0.2522   0.2892   0.3200   0.3624
     0.4078   0.4865   0.5030   0.5189   0.5383   0.5816   0.6056   0.6267
     0.6387   0.7359   0.7403   0.8270   0.8651   0.9076   0.9235   1.0108
     1.0623   1.0854   1.1083   1.1881   1.2532   1.3276   1.3674   1.3742
     1.3960   1.4720   1.4870   1.5771   1.6170   1.6729   1.6974   1.7382
     1.7421   1.7689   1.7752   1.7884   1.8004   1.8490   1.8504   1.8579
     1.8710   1.8775   1.8842   1.8931   1.9200   1.9208   1.9477   2.0062
     2.0264   2.0626   2.0973   2.1250   2.1526   2.2145   2.2280   2.2324
     2.2428   2.3928   2.4263   2.6183   2.6193   2.6490   2.6849   2.7025
     2.7437   2.7554   2.8057   2.9645   3.0390   3.0702   3.1039   3.1228
     3.1298   3.1661   3.1907   3.2331   3.2724   3.3248   3.3679   3.3721
     3.3821   3.4116   3.4163   3.4269   3.4648   3.5518   3.5612   3.5818
     3.6128   5.8766   5.8954   5.9184   5.9407   6.0912   6.1124   6.1200
     6.1248   6.8388   6.8766   6.9065   6.9262   7.0056   7.0206   7.0219
     7.0435   7.0496   7.0652   7.2215   7.2522   7.2711   7.3155   7.3480
     7.3508   7.3779   7.3826   7.3849   7.3996   7.4601   7.4855   7.5062
     7.5310   7.6291   7.6486   7.6634   7.6828   7.6973   7.7141   7.7346
     7.7355   7.7472   7.7521   7.7692   7.7799   7.8634   7.8982

          k =-0.5000 0.0000-0.3086 ( 45240 PWs)   bands (ev):

   -60.2624 -60.2467 -60.2080 -60.1961 -60.1955 -60.1890 -60.1676 -60.1608
   -60.1268 -60.1198 -60.0931 -60.0889 -60.0884 -60.0843 -60.0797 -60.0761
   -40.7333 -34.3415 -34.3222 -34.2689 -34.2547 -34.2386 -34.2302 -34.2023
   -34.1944 -34.1510 -34.1437 -34.1342 -34.1176 -34.1106 -34.1097 -34.1068
   -34.1012 -34.0912 -34.0883 -34.0712 -34.0702 -34.0660 -34.0620 -34.0590
   -34.0509 -34.0444 -34.0349 -34.0284 -34.0268 -34.0191 -34.0185 -34.0174
   -34.0091 -33.9754 -33.9559 -33.9532 -33.9514 -33.9480 -33.9398 -33.9335
   -33.9175 -33.9152 -33.9152 -33.9129 -33.9125 -33.9091 -33.9071 -33.9059
   -33.9029 -13.5333 -13.4669 -13.3967 -13.3383 -13.3340 -13.3108 -13.3015
   -13.2717 -12.9380 -12.7685 -12.5925 -12.5840 -12.5582 -12.5386 -12.4657
   -12.4602 -12.4549 -12.4523 -12.4417 -12.4340 -12.4302 -12.4105 -12.3912
   -12.3763 -12.2659 -12.2370 -12.1545 -12.1339 -12.0409 -12.0180 -12.0059
   -11.9875 -11.9128 -11.9042 -11.8750 -11.8665 -11.8457 -11.8334 -11.8271
   -11.8101  -1.1290  -1.1125  -1.0921  -1.0579  -1.0452  -1.0342  -1.0261
    -1.0245  -0.5559  -0.4726  -0.4461  -0.3635  -0.3432  -0.3247  -0.2996
    -0.2598  -0.2535  -0.2098  -0.1968  -0.1474  -0.1210   0.0577   0.0595
     0.0797   0.0892   0.1151   0.1294   0.1406   0.2062   0.2984   0.4136
     0.4283   0.4557   0.4657   0.5351   0.5397   0.5421   0.5584   0.5780
     0.5866   0.7870   0.8460   0.8895   0.9229   0.9653   0.9761   1.0051
     1.0538   1.0607   1.0743   1.1607   1.1841   1.4518   1.4993   1.5192
     1.5637   1.6118   1.6187   1.6282   1.6538   1.6625   1.6643   1.6891
     1.6984   1.7021   1.7122   1.7641   1.8030   1.8202   1.8253   1.8386
     1.8482   1.8668   1.8753   1.9093   1.9268   1.9524   1.9621   1.9690
     2.0038   2.0127   2.0291   2.0564   2.0835   2.2258   2.2338   2.2617
     2.2699   2.3097   2.3382   2.3889   2.3975   2.7185   2.7823   2.8068
     2.8258   2.8515   2.8819   2.9202   3.0154   3.0267   3.0372   3.0699
     3.0761   3.1630   3.1833   3.2474   3.2627   3.3101   3.3512   3.3706
     3.4170   3.4251   3.4391   3.4543   3.5076   3.5758   3.5819   3.5891
     3.6159   5.9409   5.9658   5.9680   5.9991   6.0526   6.0768   6.0841
     6.0901   6.8485   6.8866   6.9189   6.9437   7.0165   7.0299   7.0565
     7.0579   7.1162   7.1425   7.1594   7.1741   7.3180   7.3378   7.3407
     7.3691   7.3716   7.3902   7.3957   7.4120   7.4179   7.4455   7.5342
     7.5496   7.5919   7.6213   7.6242   7.6345   7.6514   7.6558   7.6846
     7.6951   7.7780   7.7827   7.8021   7.8103   7.8300   7.8441

          k =-0.5000-0.3895 0.0000 ( 45280 PWs)   bands (ev):

   -60.2624 -60.2467 -60.2080 -60.1961 -60.1955 -60.1890 -60.1676 -60.1608
   -60.1268 -60.1198 -60.0931 -60.0889 -60.0884 -60.0843 -60.0797 -60.0761
   -40.7333 -34.3415 -34.3222 -34.2689 -34.2547 -34.2387 -34.2301 -34.2024
   -34.1943 -34.1515 -34.1429 -34.1351 -34.1190 -34.1108 -34.1086 -34.1055
   -34.0999 -34.0947 -34.0907 -34.0728 -34.0711 -34.0687 -34.0625 -34.0498
   -34.0488 -34.0381 -34.0327 -34.0292 -34.0285 -34.0236 -34.0177 -34.0161
   -34.0068 -33.9810 -33.9597 -33.9570 -33.9535 -33.9451 -33.9409 -33.9323
   -33.9186 -33.9143 -33.9139 -33.9129 -33.9111 -33.9079 -33.9072 -33.9063
   -33.9019 -13.5622 -13.4217 -13.4117 -13.3874 -13.3656 -13.2592 -13.2514
   -13.2380 -12.9651 -12.7925 -12.6276 -12.5856 -12.5791 -12.5586 -12.4653
   -12.4586 -12.4512 -12.4484 -12.4447 -12.4327 -12.4150 -12.3885 -12.3707
   -12.3603 -12.2674 -12.2385 -12.1544 -12.1328 -12.0418 -12.0168 -12.0075
   -11.9854 -11.9099 -11.8980 -11.8673 -11.8570 -11.8497 -11.8388 -11.8385
   -11.8281  -1.1317  -1.1013  -1.0877  -1.0519  -1.0459  -1.0430  -1.0131
    -1.0095  -0.5538  -0.5211  -0.4403  -0.3662  -0.3325  -0.2936  -0.2725
    -0.2554  -0.2508  -0.1915  -0.1760  -0.1567   0.0638   0.0953   0.1899
     0.2008   0.2253   0.2964   0.3130   0.3185   0.3433   0.3639   0.3843
     0.3941   0.4047   0.4169   0.4190   0.4345   0.4446   0.5033   0.5498
     0.6071   0.6942   0.7177   0.7438   0.7690   0.7842   0.8145   0.8257
     0.8330   1.1488   1.1613   1.2305   1.2605   1.3412   1.3431   1.3541
     1.3801   1.3878   1.4176   1.5192   1.5339   1.5540   1.5570   1.6219
     1.6392   1.7087   1.7411   1.7493   1.7814   1.8116   1.8182   1.8497
     1.8546   1.8679   1.8769   1.9035   1.9098   2.0577   2.0915   2.0933
     2.1255   2.1295   2.1354   2.1821   2.1946   2.3827   2.4084   2.4206
     2.4505   2.4573   2.5203   2.5403   2.5638   2.6285   2.6944   2.6956
     2.7297   2.8839   2.9852   3.0022   3.0400   3.0787   3.1026   3.1113
     3.1302   3.1764   3.2014   3.2405   3.2411   3.2541   3.2845   3.3054
     3.3310   3.3680   3.4021   3.4122   3.4392   3.4821   3.4895   3.4976
     3.5087   5.8879   5.9079   5.9122   5.9343   6.0915   6.1127   6.1200
     6.1249   6.8435   6.8861   6.9056   6.9252   7.0120   7.0324   7.0426
     7.0433   7.0983   7.1322   7.1410   7.1654   7.3027   7.3457   7.3594
     7.3719   7.3875   7.4161   7.4267   7.4310   7.4449   7.4519   7.4775
     7.4907   7.6495   7.6671   7.6755   7.6988   7.7013   7.7427   7.7444
     7.7490   7.7580   7.7601   7.7626   7.7708   7.9370   7.9549

          k =-0.5000-0.3895-0.3086 ( 45240 PWs)   bands (ev):

   -60.2624 -60.2467 -60.2080 -60.1961 -60.1955 -60.1890 -60.1676 -60.1608
   -60.1268 -60.1198 -60.0931 -60.0889 -60.0884 -60.0843 -60.0797 -60.0761
   -40.7333 -34.3415 -34.3222 -34.2688 -34.2547 -34.2386 -34.2302 -34.2023
   -34.1944 -34.1509 -34.1436 -34.1342 -34.1175 -34.1105 -34.1097 -34.1069
   -34.1013 -34.0912 -34.0883 -34.0712 -34.0702 -34.0660 -34.0620 -34.0590
   -34.0509 -34.0444 -34.0349 -34.0284 -34.0268 -34.0191 -34.0185 -34.0174
   -34.0091 -33.9754 -33.9559 -33.9532 -33.9514 -33.9480 -33.9399 -33.9335
   -33.9175 -33.9152 -33.9152 -33.9129 -33.9125 -33.9091 -33.9072 -33.9060
   -33.9029 -13.5277 -13.4608 -13.3814 -13.3405 -13.3180 -13.3167 -13.3115
   -13.2976 -12.9376 -12.7677 -12.5920 -12.5828 -12.5571 -12.5400 -12.4635
   -12.4566 -12.4538 -12.4502 -12.4428 -12.4350 -12.4269 -12.4005 -12.3987
   -12.3900 -12.2657 -12.2364 -12.1538 -12.1324 -12.0408 -12.0184 -12.0059
   -11.9878 -11.9096 -11.8973 -11.8671 -11.8563 -11.8478 -11.8392 -11.8365
   -11.8284  -1.1288  -1.1122  -1.0916  -1.0568  -1.0461  -1.0352  -1.0279
    -1.0255  -0.5539  -0.4562  -0.4409  -0.3616  -0.3247  -0.2837  -0.2767
    -0.2584  -0.2082  -0.1475  -0.0384  -0.0239  -0.0173  -0.0114   0.0081
     0.0098   0.1671   0.3008   0.3037   0.3225   0.3244   0.3275   0.3410
     0.3533   0.3792   0.4935   0.5365   0.5516   0.5612   0.5770   0.5945
     0.5973   0.6053   0.6117   0.6258   0.6624   0.8016   0.8337   0.8355
     0.8462   1.1244   1.2311   1.3005   1.3254   1.3350   1.3596   1.3651
     1.3837   1.5254   1.5591   1.5834   1.6151   1.6602   1.6707   1.6733
     1.6905   1.6979   1.7215   1.7421   1.7601   1.7617   1.8000   1.8487
     1.8546   1.8622   1.8645   1.8941   1.9061   1.9109   1.9313   1.9599
     1.9666   2.1520   2.2080   2.2512   2.2616   2.2815   2.3000   2.3286
     2.3415   2.4838   2.5753   2.5846   2.5970   2.6228   2.6440   2.6544
     2.6759   2.8975   2.9690   3.0096   3.0583   3.0888   3.0952   3.0981
     3.1162   3.1843   3.2247   3.2312   3.2476   3.2595   3.2904   3.3274
     3.3404   3.3519   3.3972   3.4297   3.4459   3.5029   3.5091   3.5143
     3.5227   5.9432   5.9683   5.9693   6.0006   6.0544   6.0789   6.0857
     6.0916   6.8516   6.8960   6.9138   6.9359   7.0210   7.0370   7.0442
     7.0490   7.1979   7.2269   7.2393   7.2506   7.2635   7.2671   7.2765
     7.2855   7.4007   7.4245   7.4291   7.4317   7.4469   7.4542   7.4794
     7.4905   7.5948   7.6296   7.6367   7.6562   7.6618   7.6863   7.6950
     7.7043   7.8089   7.8128   7.8275   7.8297   7.8413   7.8442

     the Fermi energy is     5.5799 ev

!    total energy              =   -5109.94272439 Ry
     Harris-Foulkes estimate   =   -5109.94272437 Ry
     estimated scf accuracy    <          5.4E-11 Ry

     total all-electron energy =    -36417.358405 Ry

     The total energy is the sum of the following terms:

     one-electron contribution =   -2423.19209607 Ry
     hartree contribution      =    1379.93757527 Ry
     xc contribution           =    -623.27455364 Ry
     ewald contribution        =   -1941.94261251 Ry
     one-center paw contrib.   =   -1501.45133669 Ry
     smearing contrib. (-TS)   =      -0.01970074 Ry

     convergence has been achieved in  39 iterations

     negative rho (up, down):  1.312E-03 0.000E+00

     Forces acting on atoms (cartesian axes, Ry/au):

     atom    1 type  1   force =    -0.02228280   -0.02469142    0.04708564
     atom    2 type  1   force =     0.00069794    0.00067076    0.01217520
     atom    3 type  1   force =     0.00071252    0.00041246   -0.01397082
     atom    4 type  1   force =    -0.02470884   -0.02652438   -0.04678230
     atom    5 type  2   force =    -0.00310798    0.01556209   -0.02430535
     atom    6 type  2   force =     0.00296621   -0.00336792   -0.00438569
     atom    7 type  2   force =     0.00324311   -0.00332234    0.00456171
     atom    8 type  2   force =    -0.00342815    0.01737998    0.02599908
     atom    9 type  2   force =     0.00023159    0.00191103    0.00330237
     atom   10 type  2   force =    -0.00012521    0.00178277    0.00084999
     atom   11 type  2   force =    -0.00011689    0.00167798   -0.00068100
     atom   12 type  2   force =    -0.00010992    0.00195176    0.00058108
     atom   13 type  2   force =     0.02278326    0.02833412   -0.00132317
     atom   14 type  2   force =     0.00013661    0.00183342   -0.00337745
     atom   15 type  1   force =    -0.00653710    0.03722780    0.01728168
     atom   16 type  1   force =     0.00079890    0.00131976    0.00507585
     atom   17 type  1   force =     0.00084013    0.00128211   -0.00580631
     atom   18 type  1   force =    -0.00694756    0.04012228   -0.01661908
     atom   19 type  2   force =    -0.00180318   -0.00047817   -0.00928110
     atom   20 type  2   force =     0.00049626   -0.00351067   -0.00444339
     atom   21 type  2   force =     0.00052770   -0.00358094    0.00473554
     atom   22 type  2   force =    -0.00196107   -0.00068321    0.00951241
     atom   23 type  2   force =     0.01339614   -0.03881474    0.01567023
     atom   24 type  2   force =    -0.00008803    0.00225139    0.00045753
     atom   25 type  2   force =    -0.00008568    0.00218266   -0.00038023
     atom   26 type  2   force =    -0.00014952    0.00041812    0.00035171
     atom   27 type  2   force =     0.00278780   -0.00364970   -0.00100693
     atom   28 type  2   force =     0.01226498   -0.03609943   -0.01506274
     atom   29 type  1   force =     0.02049035   -0.01705657    0.03192959
     atom   30 type  1   force =    -0.00065929    0.00059014    0.00370398
     atom   31 type  1   force =    -0.00067027    0.00044768   -0.00421697
     atom   32 type  1   force =     0.02255499   -0.01800284   -0.03124896
     atom   33 type  2   force =     0.00142206    0.00174762   -0.01001415
     atom   34 type  2   force =    -0.00319659   -0.00296249   -0.00319386
     atom   35 type  2   force =    -0.00350086   -0.00295662    0.00338534
     atom   36 type  2   force =     0.00141639    0.00173506    0.01005241
     atom   37 type  2   force =    -0.00040025    0.00068993    0.00249531
     atom   38 type  2   force =     0.00011284    0.00192619    0.00026893
     atom   39 type  2   force =     0.00010818    0.00186121   -0.00020303
     atom   40 type  2   force =     0.00011255    0.00061775    0.00032435
     atom   41 type  2   force =    -0.01998612    0.01989773   -0.00102058
     atom   42 type  2   force =    -0.00030885    0.00060010   -0.00257857
     atom   43 type  1   force =     0.00599238    0.02630752    0.01375315
     atom   44 type  1   force =    -0.00080829    0.00158384    0.00425420
     atom   45 type  1   force =    -0.00085032    0.00157065   -0.00487600
     atom   46 type  1   force =     0.00632932    0.02817325   -0.01314512
     atom   47 type  2   force =     0.00184546    0.00038413   -0.00722494
     atom   48 type  2   force =    -0.00050356   -0.00296742   -0.00312541
     atom   49 type  2   force =    -0.00053467   -0.00301581    0.00335417
     atom   50 type  2   force =     0.00199983    0.00023795    0.00734912
     atom   51 type  2   force =    -0.01012652   -0.02708932    0.01041962
     atom   52 type  2   force =     0.00009382    0.00161807    0.00029131
     atom   53 type  2   force =     0.00009052    0.00160710   -0.00023936
     atom   54 type  2   force =     0.00014545    0.00025180    0.00030817
     atom   55 type  2   force =    -0.00244587   -0.00254833   -0.00076108
     atom   56 type  2   force =    -0.00929942   -0.02540126   -0.01006214
     atom   57 type  3   force =     0.00014552   -0.00144467   -0.00019395

     Total force =     0.163278     Total SCF correction =     0.000028

     BFGS Geometry Optimization

     number of scf cycles    =   1
     number of bfgs steps    =   0

     energy   new            =   -5109.9427243863 Ry

     new trust radius        =       0.0591832192 bohr
     new conv_thr            =            1.0E-10 Ry


ATOMIC_POSITIONS (angstrom)
V            -0.0117915501        1.7677705384        7.5285588771
V             1.7863296521        2.8047219683        9.8623979624
V             1.7863373691        2.8045852791        1.7097167367
V            -0.0130753539        1.7668005764        4.0446665428
O             1.7843156481        2.2641022763        7.8736764886
O             0.0015696498        2.3275542912        9.4707382157
O             0.0017161795        2.3275784101        2.1024198298
O             1.7841462217        2.2650642633        3.7002846965
O             0.0001225532        0.1921279949        4.1192532490
O             1.7858940625        4.3950303680        1.6694765377
O             1.7858984620        4.3949749149        9.9036777887
O             1.7859021552        2.3026859985        0.0003074936
O             0.0120563837        2.2985442892        5.7858322583
O             0.0000722894        0.1920869285        7.4537719224
V            -0.0034592839        6.3857404493        7.5127872956
V             1.7863830812        7.3902690750        9.8586411452
V             1.7864048979        7.3902491516        1.7140372124
V            -0.0036764903        6.3872721428        4.0606282330
O             1.7850061169        6.8408178100        7.8816269802
O             0.0002626085        6.9126824239        9.4707076812
O             0.0002792483        6.9126452386        2.1025118171
O             1.7849225647        6.8407093052        3.6915603232
O             0.0070889293        4.7557805201        4.1257980394
O             1.7859137391        8.9804820257        1.6692688539
O             1.7859149827        8.9804456511        9.9038369499
O             1.7858811950        6.8870781036        0.0001861191
O             0.0014752402        6.8668228477        5.7859996064
O             0.0064903471        4.7572174008        7.4475883324
V             3.5827636526        1.7718107271        7.5205386357
V             5.3575320645        2.8046793031        9.8579151830
V             5.3575262557        2.8046039165        1.7148782510
V             3.5838562155        1.7713099832        4.0528864344
O             5.3586334711        2.2567919749        7.8812390641
O             3.5702290621        2.3277688329        9.4713689065
O             3.5700680511        2.3277719415        2.1017973194
O             5.3586304693        2.2567853266        3.6918460823
O             3.5717088253        0.1914818196        4.1188261680
O             5.3579406603        4.3951062632        1.6691690509
O             5.3579381937        4.3950718746        9.9039307176
O             5.3579405064        2.3019800738        0.0001716361
O             3.5613444299        2.2940799390        5.7859923834
O             3.5717571924        0.1914342834        7.4541946688
V             3.5750916580        6.3799616837        7.5109200790
V             5.3574532209        7.3904088167        9.8582063468
V             5.3574309786        7.3904018401        1.7145295082
V             3.5752699582        6.3809489869        4.0624665747
O             5.3588575207        6.8412741160        7.8827150513
O             3.5716541527        6.9129698979        9.4714051270
O             3.5716376920        6.9129442904        2.1017808231
O             5.3589392116        6.8411967651        3.6904155626
O             3.5665619010        4.7619853436        4.1230195346
O             5.3579305920        8.9801468832        1.6691808979
O             5.3579288499        8.9801410771        9.9039114960
O             5.3579579137        6.8869900938        0.0001630779
O             3.5706263268        6.8674056706        5.7861297018
O             3.5669995855        4.7628786252        7.4502345336
Li            1.5597179126        3.6917993447        5.7421838341



     Writing output data file ./v2o5.save/
     NEW-OLD atomic charge density approx. for the potential

     Check: negative core charge=   -0.000001

     negative rho (up, down):  1.205E-03 0.000E+00

     total cpu time spent up to now is     2394.4 secs

     Self-consistent Calculation

     iteration #  1     ecut=    65.00 Ry     beta= 0.20
     Davidson diagonalization with overlap
     ethr =  1.00E-06,  avg # of iterations = 12.5

     negative rho (up, down):  1.142E-03 0.000E+00

     total cpu time spent up to now is     2558.4 secs

     total energy              =   -5109.95162073 Ry
     Harris-Foulkes estimate   =   -5109.99605529 Ry
     estimated scf accuracy    <       0.02112012 Ry

     iteration #  2     ecut=    65.00 Ry     beta= 0.20
     Davidson diagonalization with overlap
     ethr =  4.68E-06,  avg # of iterations =  1.0

     negative rho (up, down):  1.146E-03 0.000E+00

     total cpu time spent up to now is     2596.3 secs

     total energy              =   -5109.95184785 Ry
     Harris-Foulkes estimate   =   -5109.95182048 Ry
     estimated scf accuracy    <       0.01306063 Ry

     iteration #  3     ecut=    65.00 Ry     beta= 0.20
     Davidson diagonalization with overlap
     ethr =  2.90E-06,  avg # of iterations =  1.0

     negative rho (up, down):  1.283E-03 0.000E+00

     total cpu time spent up to now is     2634.9 secs

     total energy              =   -5109.94439121 Ry
     Harris-Foulkes estimate   =   -5109.95213152 Ry
     estimated scf accuracy    <       0.00712617 Ry

     iteration #  4     ecut=    65.00 Ry     beta= 0.20
     Davidson diagonalization with overlap
     ethr =  1.58E-06,  avg # of iterations =  3.4

     negative rho (up, down):  1.261E-03 0.000E+00

     total cpu time spent up to now is     2687.3 secs

     total energy              =   -5109.94782331 Ry
     Harris-Foulkes estimate   =   -5109.94532961 Ry
     estimated scf accuracy    <       0.00144735 Ry

     iteration #  5     ecut=    65.00 Ry     beta= 0.20
     Davidson diagonalization with overlap
     ethr =  3.21E-07,  avg # of iterations = 11.1

     negative rho (up, down):  1.243E-03 0.000E+00

     total cpu time spent up to now is     2776.2 secs

     total energy              =   -5109.94947606 Ry
     Harris-Foulkes estimate   =   -5109.94799691 Ry
     estimated scf accuracy    <       0.00062684 Ry

     iteration #  6     ecut=    65.00 Ry     beta= 0.20
     Davidson diagonalization with overlap
     ethr =  1.39E-07,  avg # of iterations =  4.0

     negative rho (up, down):  1.202E-03 0.000E+00

     total cpu time spent up to now is     2831.6 secs

     total energy              =   -5109.95115576 Ry
     Harris-Foulkes estimate   =   -5109.94954744 Ry
     estimated scf accuracy    <       0.00027785 Ry

     iteration #  7     ecut=    65.00 Ry     beta= 0.20
     Davidson diagonalization with overlap
     ethr =  6.16E-08,  avg # of iterations =  9.0

     negative rho (up, down):  1.190E-03 0.000E+00

     total cpu time spent up to now is     2928.7 secs

     total energy              =   -5109.95191284 Ry
     Harris-Foulkes estimate   =   -5109.95122779 Ry
     estimated scf accuracy    <       0.00010081 Ry

     iteration #  8     ecut=    65.00 Ry     beta= 0.20
     Davidson diagonalization with overlap
     ethr =  2.24E-08,  avg # of iterations =  2.4

     negative rho (up, down):  1.185E-03 0.000E+00

     total cpu time spent up to now is     2974.2 secs

     total energy              =   -5109.95213517 Ry
     Harris-Foulkes estimate   =   -5109.95192096 Ry
     estimated scf accuracy    <       0.00004091 Ry

     iteration #  9     ecut=    65.00 Ry     beta= 0.20
     Davidson diagonalization with overlap
     ethr =  9.07E-09,  avg # of iterations =  6.5

     negative rho (up, down):  1.183E-03 0.000E+00

     total cpu time spent up to now is     3042.2 secs

     total energy              =   -5109.95225377 Ry
     Harris-Foulkes estimate   =   -5109.95214116 Ry
     estimated scf accuracy    <       0.00001581 Ry

     iteration # 10     ecut=    65.00 Ry     beta= 0.20
     Davidson diagonalization with overlap
     ethr =  3.51E-09,  avg # of iterations =  5.6

     negative rho (up, down):  1.181E-03 0.000E+00

     total cpu time spent up to now is     3102.7 secs

     total energy              =   -5109.95233859 Ry
     Harris-Foulkes estimate   =   -5109.95225591 Ry
     estimated scf accuracy    <       0.00000936 Ry

     iteration # 11     ecut=    65.00 Ry     beta= 0.20
     Davidson diagonalization with overlap
     ethr =  2.07E-09,  avg # of iterations =  4.2

     negative rho (up, down):  1.182E-03 0.000E+00

     total cpu time spent up to now is     3155.3 secs

     total energy              =   -5109.95237620 Ry
     Harris-Foulkes estimate   =   -5109.95233966 Ry
     estimated scf accuracy    <       0.00000346 Ry

     iteration # 12     ecut=    65.00 Ry     beta= 0.20
     Davidson diagonalization with overlap
     ethr =  7.66E-10,  avg # of iterations =  6.0

     negative rho (up, down):  1.182E-03 0.000E+00

     total cpu time spent up to now is     3235.3 secs

     total energy              =   -5109.95242196 Ry
     Harris-Foulkes estimate   =   -5109.95237709 Ry
     estimated scf accuracy    <       0.00000091 Ry

     iteration # 13     ecut=    65.00 Ry     beta= 0.20
     Davidson diagonalization with overlap
     ethr =  2.02E-10,  avg # of iterations =  2.1

     negative rho (up, down):  1.182E-03 0.000E+00

     total cpu time spent up to now is     3278.8 secs

     total energy              =   -5109.95244049 Ry
     Harris-Foulkes estimate   =   -5109.95242203 Ry
     estimated scf accuracy    <       0.00000048 Ry

     iteration # 14     ecut=    65.00 Ry     beta= 0.20
     Davidson diagonalization with overlap
     ethr =  1.07E-10,  avg # of iterations =  4.1

     negative rho (up, down):  1.182E-03 0.000E+00

     total cpu time spent up to now is     3350.4 secs

     total energy              =   -5109.95245696 Ry
     Harris-Foulkes estimate   =   -5109.95244066 Ry
     estimated scf accuracy    <       0.00000051 Ry

     iteration # 15     ecut=    65.00 Ry     beta= 0.20
     Davidson diagonalization with overlap
     ethr =  1.07E-10,  avg # of iterations =  1.0

     negative rho (up, down):  1.182E-03 0.000E+00

     total cpu time spent up to now is     3388.3 secs

     total energy              =   -5109.95246711 Ry
     Harris-Foulkes estimate   =   -5109.95245696 Ry
     estimated scf accuracy    <       0.00000042 Ry

     iteration # 16     ecut=    65.00 Ry     beta= 0.20
     Davidson diagonalization with overlap
     ethr =  9.32E-11,  avg # of iterations =  2.1

     negative rho (up, down):  1.182E-03 0.000E+00

     total cpu time spent up to now is     3430.6 secs

     total energy              =   -5109.95247428 Ry
     Harris-Foulkes estimate   =   -5109.95246714 Ry
     estimated scf accuracy    <       0.00000008 Ry

     iteration # 17     ecut=    65.00 Ry     beta= 0.20
     Davidson diagonalization with overlap
     ethr =  1.67E-11,  avg # of iterations =  5.1

     negative rho (up, down):  1.181E-03 0.000E+00

     total cpu time spent up to now is     3514.4 secs

     total energy              =   -5109.95247856 Ry
     Harris-Foulkes estimate   =   -5109.95247431 Ry
     estimated scf accuracy    <       0.00000007 Ry

     iteration # 18     ecut=    65.00 Ry     beta= 0.20
     Davidson diagonalization with overlap
     ethr =  1.45E-11,  avg # of iterations =  1.0

     negative rho (up, down):  1.181E-03 0.000E+00

     total cpu time spent up to now is     3552.1 secs

     total energy              =   -5109.95248141 Ry
     Harris-Foulkes estimate   =   -5109.95247856 Ry
     estimated scf accuracy    <       0.00000004 Ry

     iteration # 19     ecut=    65.00 Ry     beta= 0.20
     Davidson diagonalization with overlap
     ethr =  9.82E-12,  avg # of iterations =  5.0

     negative rho (up, down):  1.181E-03 0.000E+00

     total cpu time spent up to now is     3615.0 secs

     total energy              =   -5109.95248323 Ry
     Harris-Foulkes estimate   =   -5109.95248141 Ry
     estimated scf accuracy    <       0.00000001 Ry

     iteration # 20     ecut=    65.00 Ry     beta= 0.20
     Davidson diagonalization with overlap
     ethr =  2.40E-12,  avg # of iterations =  5.0

     negative rho (up, down):  1.181E-03 0.000E+00

     total cpu time spent up to now is     3675.5 secs

     total energy              =   -5109.95248446 Ry
     Harris-Foulkes estimate   =   -5109.95248323 Ry
     estimated scf accuracy    <          6.2E-09 Ry

     iteration # 21     ecut=    65.00 Ry     beta= 0.20
     Davidson diagonalization with overlap
     ethr =  1.38E-12,  avg # of iterations =  2.1

     negative rho (up, down):  1.181E-03 0.000E+00

     total cpu time spent up to now is     3718.3 secs

     total energy              =   -5109.95248522 Ry
     Harris-Foulkes estimate   =   -5109.95248446 Ry
     estimated scf accuracy    <          2.6E-09 Ry

     iteration # 22     ecut=    65.00 Ry     beta= 0.20
     Davidson diagonalization with overlap
     ethr =  5.87E-13,  avg # of iterations =  4.6

     negative rho (up, down):  1.181E-03 0.000E+00

     total cpu time spent up to now is     3790.0 secs

     total energy              =   -5109.95248565 Ry
     Harris-Foulkes estimate   =   -5109.95248522 Ry
     estimated scf accuracy    <          1.8E-09 Ry

     iteration # 23     ecut=    65.00 Ry     beta= 0.20
     Davidson diagonalization with overlap
     ethr =  4.01E-13,  avg # of iterations =  1.8

     negative rho (up, down):  1.181E-03 0.000E+00

     total cpu time spent up to now is     3830.3 secs

     total energy              =   -5109.95248593 Ry
     Harris-Foulkes estimate   =   -5109.95248565 Ry
     estimated scf accuracy    <          7.4E-10 Ry

     iteration # 24     ecut=    65.00 Ry     beta= 0.20
     Davidson diagonalization with overlap
     ethr =  1.63E-13,  avg # of iterations =  4.6

     negative rho (up, down):  1.181E-03 0.000E+00

     total cpu time spent up to now is     3902.2 secs

     total energy              =   -5109.95248612 Ry
     Harris-Foulkes estimate   =   -5109.95248593 Ry
     estimated scf accuracy    <          7.0E-10 Ry

     iteration # 25     ecut=    65.00 Ry     beta= 0.20
     Davidson diagonalization with overlap
     ethr =  1.54E-13,  avg # of iterations =  1.8

     negative rho (up, down):  1.181E-03 0.000E+00

     total cpu time spent up to now is     3942.5 secs

     total energy              =   -5109.95248623 Ry
     Harris-Foulkes estimate   =   -5109.95248612 Ry
     estimated scf accuracy    <          2.9E-10 Ry

     iteration # 26     ecut=    65.00 Ry     beta= 0.20
     Davidson diagonalization with overlap
     ethr =  1.00E-13,  avg # of iterations =  4.8

     negative rho (up, down):  1.181E-03 0.000E+00

     total cpu time spent up to now is     4005.2 secs

     total energy              =   -5109.95248631 Ry
     Harris-Foulkes estimate   =   -5109.95248623 Ry
     estimated scf accuracy    <          2.7E-10 Ry

     iteration # 27     ecut=    65.00 Ry     beta= 0.20
     Davidson diagonalization with overlap
     ethr =  1.00E-13,  avg # of iterations =  1.0

     negative rho (up, down):  1.181E-03 0.000E+00

     total cpu time spent up to now is     4043.4 secs

     total energy              =   -5109.95248635 Ry
     Harris-Foulkes estimate   =   -5109.95248631 Ry
     estimated scf accuracy    <          1.6E-10 Ry

     iteration # 28     ecut=    65.00 Ry     beta= 0.20
     Davidson diagonalization with overlap
     ethr =  1.00E-13,  avg # of iterations =  1.0

     negative rho (up, down):  1.181E-03 0.000E+00

     total cpu time spent up to now is     4080.1 secs

     End of self-consistent calculation

          k = 0.0000 0.0000 0.0000 ( 45283 PWs)   bands (ev):

   -60.2517 -60.2411 -60.2020 -60.1947 -60.1826 -60.1803 -60.1581 -60.1562
   -60.1523 -60.1504 -60.1485 -60.1466 -60.1422 -60.1403 -60.1387 -60.1367
   -40.3696 -34.2627 -34.2566 -34.2189 -34.2180 -34.2133 -34.2115 -34.1841
   -34.1789 -34.1744 -34.1709 -34.1672 -34.1654 -34.1639 -34.1601 -34.1591
   -34.1557 -34.1335 -34.1078 -34.1007 -34.0925 -34.0835 -34.0785 -34.0763
   -34.0605 -34.0525 -34.0490 -34.0406 -34.0296 -34.0233 -34.0196 -34.0153
   -34.0015 -33.9999 -33.9956 -33.9831 -33.9787 -33.9780 -33.9744 -33.9727
   -33.9645 -33.9622 -33.9591 -33.9579 -33.9450 -33.9399 -33.9377 -33.9373
   -33.9352 -13.8238 -13.7429 -13.6989 -13.6309 -12.8842 -12.8566 -12.8080
   -12.7957 -12.7707 -12.7379 -12.6882 -12.6809 -12.6802 -12.6567 -12.6474
   -12.6087 -12.5911 -12.5435 -12.5052 -12.4758 -12.4487 -12.4332 -12.4116
   -12.3930 -12.1127 -12.0912 -12.0823 -12.0596 -12.0248 -12.0188 -11.9845
   -11.9505 -11.9469 -11.9299 -11.9137 -11.9124 -11.9037 -11.8970 -11.8783
   -11.8552  -0.9171  -0.8342  -0.8193  -0.8137  -0.6690  -0.6660  -0.6639
    -0.6514  -0.6388  -0.6118  -0.6079  -0.5950  -0.5382  -0.5144  -0.5031
    -0.4632  -0.4404  -0.2836  -0.2694  -0.2420  -0.2394  -0.1731  -0.1527
     0.0537   0.1480   0.1539   0.1882   0.1964   0.2203   0.2474   0.3325
     0.3815   0.3866   0.3871   0.4031   0.4255   0.6605   0.6766   0.7668
     0.8416   0.8562   0.8921   0.9131   0.9579   1.0130   1.0634   1.0837
     1.0983   1.1044   1.1331   1.1683   1.2014   1.2117   1.2503   1.2889
     1.3913   1.3931   1.3954   1.4058   1.4274   1.4523   1.5712   1.5953
     1.6024   1.6429   1.6767   1.7130   1.7619   1.7772   1.7979   1.8724
     1.8967   1.9198   1.9268   1.9484   2.0106   2.0569   2.0803   2.1082
     2.1131   2.1600   2.2160   2.2724   2.3051   2.3091   2.3485   2.4090
     2.5125   2.5467   2.5719   2.5895   2.6060   2.6395   2.6469   2.7909
     2.7981   2.8053   2.8164   2.8199   2.8426   2.8566   2.8863   2.9060
     2.9683   3.0162   3.0244   3.0970   3.1054   3.1774   3.1831   3.2560
     3.3049   3.3711   3.3941   3.4136   3.4701   3.5034   3.5152   3.6266
     3.6413   5.5821   5.6719   5.7713   5.8593   6.1108   6.1128   6.1304
     6.1756   6.7233   6.7800   6.8022   6.8516   6.8858   6.9704   7.0906
     7.1172   7.1486   7.1757   7.2001   7.2615   7.2679   7.3177   7.3280
     7.3512   7.4374   7.4404   7.4425   7.4779   7.5011   7.5158   7.7219
     7.7927   7.8018   7.8262   7.8671   7.8780   7.8829   7.8932   7.9327
     7.9723   7.9731   8.0692   8.1233   8.1678   8.2188   8.3226

          k = 0.0000 0.0000-0.3086 ( 45388 PWs)   bands (ev):

   -60.2517 -60.2411 -60.2020 -60.1947 -60.1826 -60.1803 -60.1577 -60.1569
   -60.1519 -60.1507 -60.1481 -60.1469 -60.1422 -60.1403 -60.1387 -60.1367
   -40.3696 -34.2626 -34.2567 -34.2186 -34.2178 -34.2135 -34.2117 -34.1837
   -34.1792 -34.1738 -34.1717 -34.1663 -34.1653 -34.1635 -34.1620 -34.1581
   -34.1569 -34.1311 -34.1098 -34.0986 -34.0892 -34.0867 -34.0772 -34.0657
   -34.0631 -34.0595 -34.0540 -34.0460 -34.0405 -34.0286 -34.0211 -34.0056
   -33.9984 -33.9945 -33.9816 -33.9807 -33.9756 -33.9751 -33.9730 -33.9706
   -33.9691 -33.9682 -33.9621 -33.9617 -33.9491 -33.9391 -33.9381 -33.9376
   -33.9354 -13.7732 -13.7582 -13.6956 -13.6847 -12.8803 -12.8523 -12.8045
   -12.7912 -12.7520 -12.7096 -12.6945 -12.6875 -12.6846 -12.6614 -12.6364
   -12.6326 -12.5894 -12.5308 -12.5055 -12.4831 -12.4731 -12.4317 -12.4110
   -12.3913 -12.1086 -12.0947 -12.0803 -12.0680 -12.0252 -12.0186 -11.9837
   -11.9520 -11.9475 -11.9296 -11.9139 -11.9071 -11.9035 -11.8810 -11.8784
   -11.8690  -0.9165  -0.8274  -0.8202  -0.8182  -0.6760  -0.6755  -0.6594
    -0.6557  -0.6445  -0.6158  -0.6042  -0.6017  -0.5527  -0.5431  -0.4970
    -0.4729  -0.3659  -0.3459  -0.2711  -0.2679  -0.1930  -0.1661  -0.1031
    -0.0605   0.0786   0.1493   0.2069   0.2499   0.2620   0.2752   0.2890
     0.3005   0.3383   0.4032   0.5469   0.5563   0.7377   0.7849   0.7942
     0.8121   0.8847   0.9581   0.9687   0.9849   0.9900   1.0104   1.0186
     1.0509   1.0727   1.1016   1.1055   1.1091   1.1265   1.1369   1.1398
     1.1742   1.4153   1.4267   1.5072   1.5299   1.5492   1.5496   1.6981
     1.7263   1.7364   1.7542   1.7723   1.7775   1.8462   1.8718   1.9048
     1.9317   1.9472   1.9679   1.9964   2.0167   2.0597   2.1062   2.1247
     2.1360   2.1466   2.1556   2.1763   2.1918   2.2110   2.2366   2.3579
     2.3868   2.4509   2.4671   2.4823   2.5100   2.5353   2.5412   2.7908
     2.7989   2.8280   2.8328   2.8851   2.9182   2.9703   2.9816   2.9872
     3.0013   3.0586   3.1101   3.1393   3.1457   3.1517   3.1742   3.2302
     3.2388   3.2616   3.3260   3.4265   3.4748   3.5751   3.5873   3.6272
     3.6393   5.6171   5.7048   5.7293   5.8218   6.1683   6.1692   6.1795
     6.2374   6.6951   6.7426   6.7705   6.8198   6.8942   6.9787   7.1079
     7.1462   7.1657   7.1774   7.2354   7.2469   7.3169   7.3702   7.3798
     7.3837   7.3981   7.4056   7.4228   7.4412   7.4517   7.4860   7.5087
     7.5890   7.7321   7.7523   7.8614   7.8907   7.8961   7.9445   7.9782
     7.9971   8.1229   8.1703   8.2348   8.2835   8.3167   8.3291

          k = 0.0000-0.3895 0.0000 ( 45328 PWs)   bands (ev):

   -60.2517 -60.2411 -60.2020 -60.1947 -60.1826 -60.1803 -60.1581 -60.1562
   -60.1523 -60.1504 -60.1485 -60.1466 -60.1422 -60.1403 -60.1387 -60.1367
   -40.3696 -34.2628 -34.2566 -34.2189 -34.2180 -34.2133 -34.2116 -34.1841
   -34.1790 -34.1743 -34.1709 -34.1665 -34.1662 -34.1636 -34.1605 -34.1592
   -34.1558 -34.1335 -34.1078 -34.1007 -34.0925 -34.0835 -34.0785 -34.0763
   -34.0606 -34.0525 -34.0491 -34.0406 -34.0296 -34.0234 -34.0196 -34.0154
   -34.0015 -34.0000 -33.9956 -33.9831 -33.9787 -33.9780 -33.9744 -33.9727
   -33.9644 -33.9622 -33.9591 -33.9578 -33.9450 -33.9399 -33.9377 -33.9373
   -33.9352 -13.7994 -13.7679 -13.6784 -13.6516 -12.8719 -12.8479 -12.8194
   -12.8021 -12.7603 -12.7363 -12.6916 -12.6837 -12.6816 -12.6604 -12.6437
   -12.6121 -12.5909 -12.5440 -12.5045 -12.4741 -12.4512 -12.4299 -12.4133
   -12.3976 -12.1094 -12.0881 -12.0850 -12.0615 -12.0203 -12.0070 -11.9857
   -11.9681 -11.9248 -11.9193 -11.9162 -11.9114 -11.9041 -11.8969 -11.8883
   -11.8799  -0.9150  -0.8284  -0.8187  -0.8164  -0.6666  -0.6615  -0.6523
    -0.6467  -0.6343  -0.6246  -0.6124  -0.6001  -0.5484  -0.5100  -0.4907
    -0.4520  -0.3587  -0.3094  -0.2183  -0.2086  -0.2012  -0.1856   0.0572
     0.0680   0.1535   0.1726   0.2461   0.2939   0.3041   0.3490   0.4230
     0.5045   0.5155   0.5301   0.5611   0.5758   0.5845   0.5908   0.6277
     0.6412   0.6457   0.6560   0.6587   0.6636   0.8037   0.8591   0.8635
     0.8954   1.1555   1.2059   1.2348   1.2458   1.2851   1.2869   1.3255
     1.3390   1.3477   1.3557   1.4603   1.4775   1.5208   1.5440   1.5478
     1.5522   1.5553   1.5705   1.6020   1.6258   1.6929   1.7473   1.8037
     1.8867   1.9580   1.9927   2.0068   2.0085   2.1520   2.1640   2.2314
     2.3071   2.3088   2.3695   2.3790   2.4179   2.4325   2.4461   2.4814
     2.4818   2.4938   2.5010   2.5022   2.5176   2.6005   2.6630   2.8070
     2.8160   2.8199   2.8391   2.8398   2.8555   2.8647   2.9214   2.9582
     3.0411   3.1409   3.1455   3.1500   3.1641   3.1750   3.2404   3.2614
     3.2719   3.2956   3.3082   3.3173   3.3510   3.4004   3.4321   3.4483
     3.4579   5.6215   5.6290   5.8112   5.8223   6.1064   6.1099   6.1251
     6.1719   6.7423   6.7616   6.8225   6.8374   6.8863   6.9649   7.1135
     7.1330   7.1356   7.1853   7.1977   7.2941   7.3005   7.3200   7.3704
     7.3978   7.4280   7.4401   7.4452   7.4654   7.4774   7.5214   7.7922
     7.8461   7.8556   7.8578   7.8662   7.8880   7.8891   7.9119   7.9406
     7.9629   7.9823   7.9952   8.1237   8.1679   8.3210   8.3214

          k = 0.0000-0.3895-0.3086 ( 45312 PWs)   bands (ev):

   -60.2517 -60.2411 -60.2020 -60.1947 -60.1826 -60.1803 -60.1577 -60.1569
   -60.1519 -60.1507 -60.1481 -60.1469 -60.1422 -60.1403 -60.1387 -60.1367
   -40.3696 -34.2626 -34.2567 -34.2186 -34.2178 -34.2134 -34.2117 -34.1838
   -34.1792 -34.1737 -34.1716 -34.1660 -34.1648 -34.1641 -34.1623 -34.1582
   -34.1570 -34.1311 -34.1098 -34.0985 -34.0892 -34.0866 -34.0772 -34.0656
   -34.0630 -34.0595 -34.0540 -34.0460 -34.0405 -34.0285 -34.0211 -34.0056
   -33.9984 -33.9944 -33.9815 -33.9807 -33.9755 -33.9750 -33.9730 -33.9706
   -33.9691 -33.9681 -33.9620 -33.9616 -33.9490 -33.9391 -33.9381 -33.9376
   -33.9354 -13.7511 -13.7347 -13.7181 -13.7086 -12.8674 -12.8435 -12.8166
   -12.7988 -12.7500 -12.7026 -12.6894 -12.6867 -12.6781 -12.6653 -12.6447
   -12.6387 -12.5891 -12.5317 -12.5042 -12.4828 -12.4757 -12.4283 -12.4124
   -12.3958 -12.1069 -12.0923 -12.0811 -12.0677 -12.0197 -12.0079 -11.9850
   -11.9690 -11.9244 -11.9192 -11.9165 -11.9115 -11.8991 -11.8912 -11.8890
   -11.8852  -0.9147  -0.8269  -0.8176  -0.8171  -0.6734  -0.6703  -0.6557
    -0.6474  -0.6371  -0.6220  -0.6147  -0.6091  -0.5367  -0.5358  -0.5055
    -0.4771  -0.2480  -0.2387  -0.2298  -0.2042  -0.2006  -0.1963  -0.1419
    -0.1297   0.2670   0.3157   0.3705   0.3949   0.3993   0.4091   0.4211
     0.4283   0.4384   0.4587   0.4704   0.4920   0.5682   0.6028   0.6285
     0.6538   0.6789   0.7124   0.7221   0.7227   0.8198   0.8368   0.8444
     0.8886   1.1715   1.2106   1.2605   1.2678   1.2842   1.2997   1.3082
     1.3125   1.3144   1.3244   1.3316   1.3413   1.3962   1.4746   1.5019
     1.5059   1.6909   1.6960   1.7451   1.7522   1.8520   1.9084   1.9312
     1.9683   2.0104   2.0574   2.0602   2.0750   2.0839   2.1242   2.1416
     2.1588   2.1691   2.1716   2.1830   2.1938   2.2518   2.2999   2.3316
     2.3605   2.6857   2.7526   2.7655   2.7732   2.7764   2.7945   2.8077
     2.8116   2.8189   2.8226   2.8350   2.8368   2.8390   2.8416   2.9136
     2.9295   2.9529   3.0039   3.0507   3.0640   3.1865   3.2877   3.2920
     3.3039   3.3247   3.3640   3.3829   3.4110   3.4223   3.4564   3.4578
     3.4752   5.6553   5.6661   5.7710   5.7797   6.1674   6.1694   6.1804
     6.2375   6.7066   6.7260   6.7874   6.7991   6.8961   6.9772   7.1269
     7.1284   7.1966   7.2254   7.2775   7.2794   7.3523   7.3643   7.3757
     7.3879   7.4098   7.4109   7.4405   7.4451   7.4579   7.4922   7.4946
     7.5731   7.7835   7.7994   7.8147   7.8465   7.9186   7.9565   7.9954
     8.0633   8.1222   8.1712   8.3153   8.3275   8.3542   8.4076

          k =-0.5000 0.0000 0.0000 ( 45262 PWs)   bands (ev):

   -60.2517 -60.2411 -60.2021 -60.1947 -60.1825 -60.1802 -60.1582 -60.1563
   -60.1525 -60.1506 -60.1483 -60.1464 -60.1420 -60.1401 -60.1389 -60.1369
   -40.3696 -34.2627 -34.2565 -34.2187 -34.2184 -34.2137 -34.2114 -34.1852
   -34.1800 -34.1738 -34.1705 -34.1674 -34.1650 -34.1638 -34.1592 -34.1583
   -34.1545 -34.1313 -34.0965 -34.0933 -34.0834 -34.0769 -34.0727 -34.0720
   -34.0578 -34.0507 -34.0375 -34.0372 -34.0367 -34.0309 -34.0299 -34.0140
   -34.0103 -34.0093 -33.9985 -33.9867 -33.9764 -33.9653 -33.9635 -33.9625
[...]
     7.2980   7.3152   7.3169   7.3587   7.3609   7.4147   7.4441   7.4771
     7.5116   7.5318   7.5424   7.5957   7.6176   7.6195   7.6295   7.6567
     7.6655   7.6696   7.7026   7.7432   7.7552   7.8221   7.8381

          k =-0.5000 0.0000-0.3086 ( 45240 PWs)   bands (ev):

   -60.2714 -60.2708 -60.2148 -60.2013 -60.2000 -60.1991 -60.1804 -60.1759
   -60.1759 -60.1753 -60.1732 -60.1644 -60.1588 -60.1554 -60.1525 -60.1500
   -39.5399 -34.2850 -34.2844 -34.2530 -34.2513 -34.2352 -34.2265 -34.2174
   -34.2112 -34.2061 -34.2023 -34.2010 -34.1856 -34.1753 -34.1729 -34.1720
   -34.1675 -34.1341 -34.1325 -34.1126 -34.0988 -34.0864 -34.0830 -34.0805
   -34.0747 -34.0592 -34.0570 -34.0531 -34.0486 -34.0382 -34.0304 -34.0275
   -34.0229 -34.0163 -34.0076 -34.0015 -33.9961 -33.9936 -33.9874 -33.9803
   -33.9779 -33.9737 -33.9697 -33.9679 -33.9669 -33.9654 -33.9645 -33.9608
   -33.9571 -13.4729 -13.4206 -13.3960 -13.3709 -13.3448 -13.3152 -13.3110
   -13.3013 -12.6510 -12.6156 -12.6079 -12.5823 -12.5477 -12.5305 -12.5262
   -12.5239 -12.5196 -12.5097 -12.4911 -12.4824 -12.4773 -12.4691 -12.4661
   -12.4472 -12.2275 -12.1393 -12.0775 -12.0703 -12.0550 -12.0391 -12.0326
   -12.0216 -12.0045 -11.9690 -11.9592 -11.9359 -11.9158 -11.9056 -11.8888
   -11.8887  -1.0815  -1.0615  -1.0569  -1.0510  -1.0365  -1.0104  -1.0103
    -0.9998  -0.4530  -0.3718  -0.3686  -0.3420  -0.3352  -0.2976  -0.2843
    -0.2839  -0.2438  -0.1983  -0.1849  -0.1695  -0.1251   0.0432   0.0708
     0.0824   0.0901   0.0941   0.1046   0.1400   0.2214   0.3205   0.3647
     0.3989   0.3998   0.4240   0.4606   0.4654   0.5072   0.5136   0.5378
     0.5520   0.8755   0.8944   0.9143   0.9402   0.9754   0.9941   1.0056
     1.0306   1.0331   1.0890   1.1206   1.1492   1.4559   1.4992   1.5095
     1.5431   1.6013   1.6062   1.6419   1.6447   1.6567   1.6632   1.6801
     1.7123   1.7185   1.7534   1.7793   1.7842   1.8017   1.8154   1.8228
     1.8378   1.8404   1.8832   1.9328   1.9349   1.9485   1.9620   1.9913
     2.0032   2.0247   2.0505   2.0804   2.0844   2.1793   2.2189   2.2291
     2.2545   2.2970   2.3252   2.3559   2.3727   2.7127   2.7532   2.7704
     2.7764   2.8418   2.8508   2.9016   2.9125   2.9752   2.9938   3.0192
     3.0266   3.1672   3.1802   3.2368   3.2650   3.2968   3.3264   3.3510
     3.3626   3.4208   3.4421   3.4761   3.4905   3.4932   3.5044   3.5288
     3.5604   5.9428   5.9448   5.9663   5.9667   6.0073   6.0075   6.0364
     6.0519   6.6727   6.8842   6.9114   6.9128   6.9513   6.9593   6.9815
     7.0003   7.0340   7.1056   7.1433   7.1639   7.2253   7.2963   7.3052
     7.3174   7.3218   7.3259   7.3608   7.3727   7.3794   7.3918   7.4702
     7.4848   7.5121   7.5476   7.5642   7.5656   7.5868   7.5932   7.6151
     7.6304   7.6934   7.7069   7.7481   7.7881   7.7981   7.8043

          k =-0.5000-0.3895 0.0000 ( 45280 PWs)   bands (ev):

   -60.2714 -60.2708 -60.2148 -60.2013 -60.1998 -60.1993 -60.1804 -60.1759
   -60.1759 -60.1754 -60.1732 -60.1644 -60.1588 -60.1554 -60.1525 -60.1500
   -39.5399 -34.2850 -34.2843 -34.2530 -34.2514 -34.2353 -34.2264 -34.2173
   -34.2111 -34.2061 -34.2025 -34.2011 -34.1855 -34.1758 -34.1744 -34.1702
   -34.1669 -34.1359 -34.1335 -34.1165 -34.0996 -34.0897 -34.0841 -34.0678
   -34.0674 -34.0563 -34.0560 -34.0500 -34.0493 -34.0375 -34.0345 -34.0298
   -34.0272 -34.0172 -34.0081 -34.0033 -34.0007 -34.0003 -33.9873 -33.9798
   -33.9793 -33.9750 -33.9687 -33.9670 -33.9649 -33.9635 -33.9625 -33.9582
   -33.9567 -13.4948 -13.4413 -13.4021 -13.3846 -13.3353 -13.3064 -13.2681
   -13.2538 -12.6789 -12.6462 -12.6148 -12.5991 -12.5977 -12.5928 -12.5447
   -12.5299 -12.4972 -12.4873 -12.4799 -12.4747 -12.4651 -12.4485 -12.4261
   -12.4095 -12.2254 -12.1368 -12.0752 -12.0637 -12.0587 -12.0365 -12.0315
   -12.0185 -12.0023 -11.9663 -11.9570 -11.9256 -11.9230 -11.9122 -11.9053
   -11.8982  -1.0739  -1.0611  -1.0564  -1.0438  -1.0261  -1.0169  -1.0078
    -0.9859  -0.4885  -0.3714  -0.3623  -0.3244  -0.3169  -0.2924  -0.2854
    -0.2791  -0.2394  -0.2170  -0.1875  -0.1663   0.0803   0.1416   0.1623
     0.1871   0.1992   0.2832   0.2855   0.3176   0.3217   0.3247   0.3558
     0.3758   0.3823   0.4019   0.4101   0.4387   0.5106   0.5475   0.5576
     0.5891   0.6417   0.6693   0.7051   0.7181   0.7643   0.7779   0.7954
     0.8044   1.1804   1.2277   1.2475   1.2553   1.2936   1.3088   1.3143
     1.3498   1.4181   1.4428   1.4766   1.5273   1.5344   1.5418   1.5918
     1.5994   1.6606   1.7704   1.7770   1.8092   1.8184   1.8657   1.8696
     1.8834   1.8919   1.9042   1.9213   1.9384   2.0578   2.0854   2.1152
     2.1225   2.1393   2.1757   2.1847   2.1870   2.3587   2.3752   2.3947
     2.4160   2.4339   2.4971   2.5228   2.5233   2.5798   2.6033   2.6891
     2.6893   2.9411   2.9575   3.0113   3.0163   3.0736   3.0744   3.0966
     3.1159   3.1355   3.1369   3.1939   3.2066   3.2280   3.2351   3.2848
     3.3037   3.3545   3.3547   3.3868   3.4139   3.4178   3.4278   3.4576
     3.4600   5.8647   5.8737   5.8956   5.9310   6.0234   6.0588   6.0918
     6.0978   6.6639   6.8665   6.8955   6.9019   6.9578   6.9616   6.9695
     6.9872   7.0194   7.0962   7.1219   7.1522   7.2221   7.2633   7.2849
     7.3218   7.3472   7.3528   7.3748   7.3833   7.4013   7.4439   7.4594
     7.4644   7.5478   7.5558   7.5949   7.6134   7.6177   7.6630   7.6641
     7.6825   7.6882   7.7073   7.7503   7.7531   7.8702   7.8755

          k =-0.5000-0.3895-0.3086 ( 45240 PWs)   bands (ev):

   -60.2714 -60.2708 -60.2148 -60.2013 -60.2000 -60.1991 -60.1804 -60.1759
   -60.1759 -60.1753 -60.1732 -60.1644 -60.1588 -60.1554 -60.1525 -60.1500
   -39.5399 -34.2850 -34.2843 -34.2530 -34.2514 -34.2352 -34.2264 -34.2173
   -34.2111 -34.2060 -34.2024 -34.2011 -34.1855 -34.1753 -34.1729 -34.1720
   -34.1676 -34.1341 -34.1325 -34.1125 -34.0988 -34.0864 -34.0830 -34.0805
   -34.0747 -34.0593 -34.0570 -34.0531 -34.0486 -34.0383 -34.0304 -34.0275
   -34.0229 -34.0163 -34.0076 -34.0015 -33.9962 -33.9936 -33.9874 -33.9803
   -33.9779 -33.9737 -33.9697 -33.9679 -33.9669 -33.9654 -33.9645 -33.9608
   -33.9571 -13.4618 -13.4099 -13.3815 -13.3564 -13.3481 -13.3329 -13.3257
   -13.3173 -12.6464 -12.6152 -12.5982 -12.5792 -12.5453 -12.5379 -12.5373
   -12.5233 -12.5137 -12.4960 -12.4927 -12.4896 -12.4781 -12.4754 -12.4670
   -12.4552 -12.2250 -12.1368 -12.0748 -12.0644 -12.0590 -12.0368 -12.0338
   -12.0206 -12.0018 -11.9639 -11.9547 -11.9256 -11.9210 -11.9109 -11.9042
   -11.8978  -1.0749  -1.0627  -1.0617  -1.0507  -1.0351  -1.0137  -1.0108
    -1.0016  -0.4433  -0.3623  -0.3452  -0.3226  -0.3170  -0.3047  -0.2868
    -0.2812  -0.1805  -0.1336  -0.0411  -0.0397  -0.0328  -0.0087  -0.0023
     0.0061   0.2019   0.2232   0.2602   0.2908   0.2952   0.3206   0.3484
     0.3526   0.4331   0.4816   0.5000   0.5220   0.5241   0.5615   0.5907
     0.6168   0.6192   0.6220   0.6499   0.6757   0.7036   0.7148   0.8002
     0.8145   1.2261   1.2309   1.2856   1.2931   1.3114   1.3237   1.3468
     1.3742   1.5878   1.5912   1.5971   1.6202   1.6270   1.6296   1.6634
     1.6809   1.6930   1.7150   1.7625   1.7765   1.7923   1.8028   1.8086
     1.8280   1.8345   1.8915   1.9300   1.9344   1.9477   1.9658   1.9783
     1.9789   2.2024   2.2034   2.2213   2.2424   2.2579   2.2739   2.3103
     2.3128   2.4246   2.5405   2.5466   2.5883   2.5957   2.6077   2.6242
     2.6280   2.9371   2.9376   3.0205   3.0246   3.0612   3.0695   3.0770
     3.1033   3.1657   3.2013   3.2041   3.2161   3.2306   3.2506   3.2795
     3.3053   3.3176   3.3719   3.4105   3.4203   3.4510   3.4527   3.4547
     3.4693   5.9448   5.9455   5.9678   5.9701   6.0094   6.0099   6.0396
     6.0534   6.6728   6.8858   6.9085   6.9106   6.9555   6.9651   6.9752
     6.9933   7.0519   7.1785   7.2084   7.2299   7.2398   7.2521   7.2629
     7.2766   7.3151   7.3156   7.3549   7.3693   7.3978   7.4231   7.4443
     7.4517   7.4909   7.5683   7.5851   7.5875   7.5921   7.5995   7.6302
     7.6333   7.7115   7.7281   7.7625   7.7988   7.8014   7.8147

     the Fermi energy is     5.5324 ev

!    total energy              =   -5109.97557688 Ry
     Harris-Foulkes estimate   =   -5109.97557688 Ry
     estimated scf accuracy    <          8.5E-13 Ry

     total all-electron energy =    -36417.391257 Ry

     The total energy is the sum of the following terms:

     one-electron contribution =   -2413.02940216 Ry
     hartree contribution      =    1374.56022017 Ry
     xc contribution           =    -623.10109198 Ry
     ewald contribution        =   -1946.93897931 Ry
     one-center paw contrib.   =   -1501.44670752 Ry
     smearing contrib. (-TS)   =      -0.01961609 Ry

     convergence has been achieved in   7 iterations

     negative rho (up, down):  1.271E-03 0.000E+00

     Forces acting on atoms (cartesian axes, Ry/au):

     atom    1 type  1   force =    -0.00000182   -0.00000081   -0.00000097
     atom    2 type  1   force =    -0.00000214   -0.00000088   -0.00000117
     atom    3 type  1   force =     0.00000046    0.00000211   -0.00000284
     atom    4 type  1   force =     0.00000092   -0.00000067   -0.00000307
     atom    5 type  2   force =     0.00000475   -0.00000398    0.00000390
     atom    6 type  2   force =     0.00000252   -0.00000155    0.00000438
     atom    7 type  2   force =    -0.00000387   -0.00000123    0.00000785
     atom    8 type  2   force =     0.00000015    0.00000120    0.00000046
     atom    9 type  2   force =    -0.00000011    0.00000367    0.00000442
     atom   10 type  2   force =    -0.00000485    0.00000299   -0.00000008
     atom   11 type  2   force =    -0.00000230    0.00000034    0.00000513
     atom   12 type  2   force =    -0.00000441    0.00000072    0.00000032
     atom   13 type  2   force =    -0.00000533    0.00000613   -0.00000013
     atom   14 type  2   force =    -0.00000065    0.00000379   -0.00000431
     atom   15 type  1   force =     0.00000153    0.00000380   -0.00000106
     atom   16 type  1   force =     0.00000362   -0.00000251    0.00000031
     atom   17 type  1   force =     0.00000351    0.00000304   -0.00000108
     atom   18 type  1   force =     0.00000305    0.00000339   -0.00000148
     atom   19 type  2   force =     0.00000141    0.00000096    0.00000545
     atom   20 type  2   force =     0.00000169   -0.00000313   -0.00000382
     atom   21 type  2   force =    -0.00000097    0.00000216    0.00000233
     atom   22 type  2   force =    -0.00000113    0.00000245   -0.00000218
     atom   23 type  2   force =    -0.00000542   -0.00000223    0.00000259
     atom   24 type  2   force =    -0.00000276    0.00000279   -0.00000460
     atom   25 type  2   force =     0.00000353   -0.00000460   -0.00000025
     atom   26 type  2   force =     0.00000587    0.00000498    0.00000140
     atom   27 type  2   force =     0.00000483   -0.00000419   -0.00000114
     atom   28 type  2   force =    -0.00000750   -0.00000076   -0.00000797
     atom   29 type  1   force =    -0.00000023    0.00000023   -0.00000431
     atom   30 type  1   force =    -0.00000386   -0.00000115   -0.00000076
     atom   31 type  1   force =    -0.00000251    0.00000070   -0.00000068
     atom   32 type  1   force =     0.00000152    0.00000049    0.00000058
     atom   33 type  2   force =    -0.00000017   -0.00000391   -0.00000011
     atom   34 type  2   force =     0.00000010    0.00000272    0.00000442
     atom   35 type  2   force =    -0.00000667    0.00000294    0.00000565
     atom   36 type  2   force =    -0.00000661   -0.00000059   -0.00000083
     atom   37 type  2   force =     0.00000504    0.00000133    0.00000206
     atom   38 type  2   force =     0.00000007    0.00000025    0.00000037
     atom   39 type  2   force =     0.00000252   -0.00000195    0.00000290
     atom   40 type  2   force =    -0.00000173   -0.00000119    0.00000073
     atom   41 type  2   force =     0.00000215    0.00000445    0.00000096
     atom   42 type  2   force =     0.00000927    0.00000328   -0.00000191
     atom   43 type  1   force =     0.00000109   -0.00000084   -0.00000084
     atom   44 type  1   force =     0.00000393    0.00000323   -0.00000087
     atom   45 type  1   force =     0.00000474    0.00000523    0.00000027
     atom   46 type  1   force =     0.00000103   -0.00000391   -0.00000043
     atom   47 type  2   force =    -0.00000121   -0.00000762   -0.00000354
     atom   48 type  2   force =     0.00000011   -0.00000227    0.00000140
     atom   49 type  2   force =    -0.00000242    0.00000392   -0.00000305
     atom   50 type  2   force =    -0.00000471   -0.00000960    0.00000113
     atom   51 type  2   force =    -0.00000472   -0.00000925    0.00000633
     atom   52 type  2   force =     0.00000144    0.00000815    0.00000159
     atom   53 type  2   force =     0.00000147    0.00000566   -0.00000016
     atom   54 type  2   force =     0.00000606   -0.00000620   -0.00000086
     atom   55 type  2   force =     0.00000261   -0.00000301   -0.00000170
     atom   56 type  2   force =     0.00000130   -0.00000595   -0.00000591
     atom   57 type  3   force =    -0.00000419   -0.00000313   -0.00000480

     Total force =     0.000046     Total SCF correction =     0.000003

     bfgs converged in 105 scf cycles and 104 bfgs steps
     (criteria: energy <  1.0E-04 Ry, force <  1.0E-05 Ry/Bohr)

     End of BFGS Geometry Optimization

     Final energy   =   -5109.9755768773 Ry
Begin final coordinates

ATOMIC_POSITIONS (angstrom)
V            -0.0144851548        1.7857035797        7.5000632840
V             1.7820599468        2.7878131502        9.8408902755
V             1.7821598262        2.7526923695        1.7033288729
V            -0.0232084542        1.7216740567        4.0444155661
O             1.7820414052        2.2653735308        7.8744208376
O            -0.0178818114        2.3135330244        9.4582456586
O            -0.0129686956        2.2643071150        2.0992722574
O             1.7821379275        2.2683067772        3.7058223861
O            -0.0497334923        0.1341757284        4.1206826757
O             1.7822316783        4.3420765376        1.6669319422
O             1.7821123847        4.3764868302        9.9055159546
O             1.7821196057        2.2730242096       -0.0145066925
O             0.1219387846        2.2964696100        5.7583266525
O            -0.0612457363        0.1979545127        7.4518711353
V             0.0120067348        6.4089236505        7.5130089122
V             1.7818049909        7.4133335287        9.8700317770
V             1.7819232347        7.4143404591        1.7339239370
V             0.0296449398        6.4011046237        4.1140361926
O             1.7818208845        6.9522032047        7.8651596008
O             0.0080853201        6.8901862492        9.4902286198
O             0.0144084838        6.8771794309        2.1313075720
O             1.7819225145        6.9850125006        3.7498134155
O             0.2443394807        4.8095981321        4.2794764507
O             1.7819499357        9.0066358919        1.6824215770
O             1.7817551024        9.0041758665        9.9142524254
O             1.7818664238        6.9143143169        0.0185611502
O            -0.0374563381        6.9559608903        5.8010780714
O             0.1181146568        4.8189618127        7.3699777012
V             3.5785198841        1.7856517170        7.5000680049
V             5.3539493173        2.8329275238        9.8298122317
V             5.3540592195        2.7893132501        1.7192529120
V             3.5874489078        1.7216270418        4.0444004557
O             5.3539425189        2.3341295381        7.8066960896
O             3.5819684656        2.3133945601        9.4582635905
O             3.5772572336        2.2641924608        2.0992644468
O             5.3540465404        2.2636285455        3.7454040931
O             3.6138919467        0.1341273624        4.1206867914
O             5.3539955073        4.3811617365        1.7348860450
O             5.3538371094        4.4239386464        9.8587540769
O             5.3540377672        2.3584427365       -0.0103841111
O             3.4422728142        2.2964553121        5.7583147132
O             3.6251608623        0.1978991618        7.4518566263
V             3.5516771327        6.4090345067        7.5129736339
V             5.3537420391        7.3492697992        9.8773098388
V             5.3538543069        7.3198017650        1.7379712786
V             3.5342849988        6.4012339913        4.1140458910
O             5.3537733934        6.8064168613        7.9046448263
O             3.5555708137        6.8902756151        9.4901713103
O             3.5494538235        6.8772435434        2.1313558224
O             5.3538787706        6.7053427751        3.7029773353
O             3.3197359938        4.8097129422        4.2795217589
O             5.3539013200        8.9110860085        1.6944724463
O             5.3537901071        8.9383870582        9.9402876189
O             5.3537191662        6.8298081484        0.0218893410
O             3.6011715323        6.9561444130        5.8010769385
O             3.4456256914        4.8190778585        7.3698147686
Li            1.7822756620        3.7127234711        5.2976268579
End final coordinates



     Writing output data file ./v2o5.save/
 
     init_run     :     22.29s CPU     23.02s WALL (       1 calls)
     electrons    : 119482.10s CPU 122197.75s WALL (     105 calls)
     update_pot   :    555.35s CPU    562.01s WALL (     104 calls)
     forces       :   1171.81s CPU   1223.33s WALL (     105 calls)

     Called by init_run:
     wfcinit      :     16.04s CPU     16.36s WALL (       1 calls)
     potinit      :      1.86s CPU      1.92s WALL (       1 calls)
     hinit0       :      1.98s CPU      2.02s WALL (       1 calls)

     Called by electrons:
     c_bands      : 102817.16s CPU 104250.29s WALL (    2405 calls)
     sum_band     :  12304.83s CPU  13013.92s WALL (    2405 calls)
     v_of_rho     :    745.51s CPU    780.78s WALL (    2423 calls)
     newd         :   1549.25s CPU   2051.93s WALL (    2423 calls)
     PAW_pot      :   1102.59s CPU   1113.84s WALL (    2527 calls)
     mix_rho      :   1054.93s CPU   1087.47s WALL (    2405 calls)

     Called by c_bands:
     init_us_2    :    830.71s CPU    844.61s WALL (   40160 calls)
     cegterg      :  99611.12s CPU 100989.12s WALL (   19240 calls)

     Called by sum_band:
     sum_band:bec :     54.82s CPU     55.33s WALL (   20072 calls)
     addusdens    :   1957.16s CPU   2491.71s WALL (    2405 calls)

     Called by *egterg:
     h_psi        :  39254.73s CPU  39913.19s WALL (   77847 calls)
     s_psi        :   8221.63s CPU   8304.90s WALL (   77847 calls)
     g_psi        :    137.41s CPU    138.85s WALL (   58599 calls)
     cdiaghg      :  24822.08s CPU  24999.68s WALL (   76311 calls)

     Called by h_psi:
     h_psi:calbec :  10078.65s CPU  10223.70s WALL (   77847 calls)
     vloc_psi     :  20346.60s CPU  20741.38s WALL (   77847 calls)
     add_vuspsi   :   8355.47s CPU   8434.39s WALL (   77847 calls)

     General routines
     calbec       :  15004.25s CPU  15222.18s WALL (  101279 calls)
     fft          :   1031.05s CPU   1078.44s WALL (   32635 calls)
     ffts         :    386.45s CPU    392.23s WALL (  181773 calls)
     fftw         :  23584.83s CPU  24044.51s WALL (29297916 calls)
     interpolate  :     65.79s CPU     69.09s WALL (    2423 calls)
 
     Parallel routines
     fft_scatt_xy :   1892.43s CPU   1916.46s WALL (29512324 calls)
     fft_scatt_yz :  14075.85s CPU  14451.43s WALL (29512324 calls)
 
     PWSCF        :   1d 9h46m CPU   1d10h33m WALL

 
   This run was terminated on:   0:24: 4  16Nov2021            

=------------------------------------------------------------------------------=
   JOB DONE.
=------------------------------------------------------------------------------=
