
     Program PWSCF v.6.4.1 starts on 17May2024 at 22:15: 4 

     This program is part of the open-source Quantum ESPRESSO suite
     for quantum simulation of materials; please cite
         "P. Giannozzi et al., J. Phys.:Condens. Matter 21 395502 (2009);
         "P. Giannozzi et al., J. Phys.:Condens. Matter 29 465901 (2017);
          URL http://www.quantum-espresso.org", 
     in publications or presentations arising from this work. More details at
     http://www.quantum-espresso.org/quote

     Parallel version (MPI), running on    32 processors

     MPI processes distributed on     1 nodes
     R & G space division:  proc/nbgrp/npool/nimage =      32
     Reading input from v2o5.vc-rlx.in

     Current dimensions of program PWSCF are:
     Max number of different atomic species (ntypx) = 10
     Max number of k-points (npk) =  40000
     Max angular momentum in pseudopotentials (lmaxx) =  3

     -------------------------------------------------
     Parameters for Dispersion (Grimme-D2) Correction:
     -------------------------------------------------
       atom      VdW radius       C_6     

        V          2.952        374.666
        O          2.536         24.284

     Subspace diagonalization in iterative solution of the eigenvalue problem:
     one sub-group per band group will be used
     ELPA distributed-memory algorithm (size of sub-group:  4*  4 procs)


     Parallelization info
     --------------------
     sticks:   dense  smooth     PW     G-vecs:    dense   smooth      PW
     Min          56      56     15                 5208     5208     723
     Max          57      57     16                 5213     5213     735
     Sum        1807    1807    481               166689   166689   23357



     bravais-lattice index     =            8
     lattice parameter (alat)  =       6.6827  a.u.
     unit-cell volume          =    1233.5773 (a.u.)^3
     number of atoms/cell      =           14
     number of atomic types    =            2
     number of electrons       =       112.00
     number of Kohn-Sham states=           56
     kinetic-energy cutoff     =     100.0000  Ry
     charge density cutoff     =     400.0000  Ry
     convergence threshold     =      1.0E-10
     mixing beta               =       0.7000
     number of iterations used =            8  plain     mixing
     Exchange-correlation      = PBE ( 1  4  3  4 0 0)
     nstep                     =          500


     celldm(1)=   6.682682  celldm(2)=   1.263659  celldm(3)=   3.271025
     celldm(4)=   0.000000  celldm(5)=   0.000000  celldm(6)=   0.000000

     crystal axes: (cart. coord. in units of alat)
               a(1) = (   1.000000   0.000000   0.000000 )  
               a(2) = (   0.000000   1.263659   0.000000 )  
               a(3) = (   0.000000   0.000000   3.271025 )  

     reciprocal axes: (cart. coord. in units 2 pi/alat)
               b(1) = (  1.000000  0.000000  0.000000 )  
               b(2) = (  0.000000  0.791352  0.000000 )  
               b(3) = (  0.000000  0.000000  0.305715 )  


     PseudoPot. # 1 for V  read from file:
     /home/mpicuntureo/pseudos/v.nc.upf
     MD5 check sum: 40fb93c06b4f9d8c28c5ccd071294a04
     Pseudo is Norm-conserving + core correction, Zval = 13.0
     Generated using ONCVPSP code by D. R. Hamann
     Using radial grid of 1536 points,  6 beta functions with: 
                l(1) =   0
                l(2) =   0
                l(3) =   1
                l(4) =   1
                l(5) =   2
                l(6) =   2

     PseudoPot. # 2 for O  read from file:
     /home/mpicuntureo/pseudos/o.nc.upf
     MD5 check sum: 3e3f909f7470e8921608ab6b1f57bbae
     Pseudo is Norm-conserving + core correction, Zval =  6.0
     Generated using ONCVPSP code by D. R. Hamann
     Using radial grid of  936 points,  5 beta functions with: 
                l(1) =   0
                l(2) =   0
                l(3) =   1
                l(4) =   1
                l(5) =   2

     atomic species   valence    mass     pseudopotential
        V             13.00    50.94150     V ( 1.00)
        O              6.00    15.99940     O ( 1.00)

      8 Sym. Ops., with inversion, found ( 4 have fractional translation)



   Cartesian axes

     site n.     atom                  positions (alat units)
         1           V   tau(   1) = (   0.0000000   0.4838420   2.1198804  )
         2           V   tau(   2) = (   0.5000000   0.7798175   2.7866567  )
         3           V   tau(   3) = (   0.5000000   0.7798175   0.4843680  )
         4           V   tau(   4) = (   0.0000000   0.4838420   1.1511443  )
         5           O   tau(   5) = (   0.5000000   0.6221939   2.2285187  )
         6           O   tau(   6) = (   0.0000000   0.6414656   2.6780184  )
         7           O   tau(   7) = (   0.0000000   0.6414656   0.5930063  )
         8           O   tau(   8) = (   0.5000000   0.6221939   1.0425060  )
         9           O   tau(   9) = (   0.0000000   0.0364742   1.1584929  )
        10           O   tau(  10) = (   0.5000000   1.2271853   0.4770194  )
        11           O   tau(  11) = (   0.5000000   1.2271853   2.7940053  )
        12           O   tau(  12) = (   0.5000000   0.6433842   0.0000000  )
        13           O   tau(  13) = (   0.0000000   0.6202753   1.6355124  )
        14           O   tau(  14) = (   0.0000000   0.0364742   2.1125318  )

     number of k points=     4
                       cart. coord. in units 2pi/alat
        k(    1) = (   0.0000000   0.0000000   0.0000000), wk =   0.2222222
        k(    2) = (   0.0000000   0.2637841   0.0000000), wk =   0.4444444
        k(    3) = (   0.3333333   0.0000000   0.0000000), wk =   0.4444444
        k(    4) = (   0.3333333   0.2637841   0.0000000), wk =   0.8888889

     Dense  grid:   166689 G-vectors     FFT dimensions: (  48,  54, 144)

     Estimated max dynamical RAM per process >      19.58 MB

     Estimated total dynamical RAM >     626.65 MB

     Initial potential from superposition of free atoms

     starting charge  111.99579, renormalised to  112.00000
     Starting wfcs are   80 randomized atomic wfcs

     total cpu time spent up to now is        1.3 secs

     Self-consistent Calculation

     iteration #  1     ecut=   100.00 Ry     beta= 0.70
     Davidson diagonalization with overlap
     ethr =  1.00E-02,  avg # of iterations =  2.0

     total cpu time spent up to now is        2.4 secs

     total energy              =    -917.45080683 Ry
     Harris-Foulkes estimate   =    -923.62570422 Ry
     estimated scf accuracy    <       7.75043064 Ry

     iteration #  2     ecut=   100.00 Ry     beta= 0.70
     Davidson diagonalization with overlap
     ethr =  6.92E-03,  avg # of iterations =  6.2

     total cpu time spent up to now is        4.6 secs

     total energy              =    -908.11425289 Ry
     Harris-Foulkes estimate   =    -938.53134818 Ry
     estimated scf accuracy    <     136.17272716 Ry

     iteration #  3     ecut=   100.00 Ry     beta= 0.70
     Davidson diagonalization with overlap
     ethr =  6.92E-03,  avg # of iterations =  5.8

     total cpu time spent up to now is        6.8 secs

     total energy              =    -921.91176148 Ry
     Harris-Foulkes estimate   =    -922.67649961 Ry
     estimated scf accuracy    <       2.55829990 Ry

     iteration #  4     ecut=   100.00 Ry     beta= 0.70
     Davidson diagonalization with overlap
     ethr =  2.28E-03,  avg # of iterations =  3.8

     total cpu time spent up to now is        7.9 secs

     total energy              =    -922.06592990 Ry
     Harris-Foulkes estimate   =    -922.19740831 Ry
     estimated scf accuracy    <       0.84149680 Ry

     iteration #  5     ecut=   100.00 Ry     beta= 0.70
     Davidson diagonalization with overlap
     ethr =  7.51E-04,  avg # of iterations =  4.0

     total cpu time spent up to now is        9.0 secs

     total energy              =    -922.00582616 Ry
     Harris-Foulkes estimate   =    -922.12938525 Ry
     estimated scf accuracy    <       0.42202823 Ry

     iteration #  6     ecut=   100.00 Ry     beta= 0.70
     Davidson diagonalization with overlap
     ethr =  3.77E-04,  avg # of iterations =  4.0

     total cpu time spent up to now is       10.3 secs

     total energy              =    -922.13239388 Ry
     Harris-Foulkes estimate   =    -922.14868695 Ry
     estimated scf accuracy    <       0.18010575 Ry

     iteration #  7     ecut=   100.00 Ry     beta= 0.70
     Davidson diagonalization with overlap
     ethr =  1.61E-04,  avg # of iterations =  2.0

     total cpu time spent up to now is       11.1 secs

     total energy              =    -922.10635192 Ry
     Harris-Foulkes estimate   =    -922.13475709 Ry
     estimated scf accuracy    <       0.13730886 Ry

     iteration #  8     ecut=   100.00 Ry     beta= 0.70
     Davidson diagonalization with overlap
     ethr =  1.23E-04,  avg # of iterations =  3.8

     total cpu time spent up to now is       12.3 secs

     total energy              =    -922.12512264 Ry
     Harris-Foulkes estimate   =    -922.12610461 Ry
     estimated scf accuracy    <       0.00237811 Ry

     iteration #  9     ecut=   100.00 Ry     beta= 0.70
     Davidson diagonalization with overlap
     ethr =  2.12E-06,  avg # of iterations =  5.8

     total cpu time spent up to now is       14.1 secs

     total energy              =    -922.12709189 Ry
     Harris-Foulkes estimate   =    -922.12739604 Ry
     estimated scf accuracy    <       0.00151434 Ry

     iteration # 10     ecut=   100.00 Ry     beta= 0.70
     Davidson diagonalization with overlap
     ethr =  1.35E-06,  avg # of iterations =  4.0

     total cpu time spent up to now is       15.2 secs

     total energy              =    -922.12716038 Ry
     Harris-Foulkes estimate   =    -922.12726144 Ry
     estimated scf accuracy    <       0.00050531 Ry

     iteration # 11     ecut=   100.00 Ry     beta= 0.70
     Davidson diagonalization with overlap
     ethr =  4.51E-07,  avg # of iterations =  3.5

     total cpu time spent up to now is       16.2 secs

     total energy              =    -922.12715271 Ry
     Harris-Foulkes estimate   =    -922.12719181 Ry
     estimated scf accuracy    <       0.00016206 Ry

     iteration # 12     ecut=   100.00 Ry     beta= 0.70
     Davidson diagonalization with overlap
     ethr =  1.45E-07,  avg # of iterations =  4.0

     total cpu time spent up to now is       17.7 secs

     total energy              =    -922.12720356 Ry
     Harris-Foulkes estimate   =    -922.12721197 Ry
     estimated scf accuracy    <       0.00007434 Ry

     iteration # 13     ecut=   100.00 Ry     beta= 0.70
     Davidson diagonalization with overlap
     ethr =  6.64E-08,  avg # of iterations =  1.0

     total cpu time spent up to now is       18.5 secs

     total energy              =    -922.12719762 Ry
     Harris-Foulkes estimate   =    -922.12720460 Ry
     estimated scf accuracy    <       0.00005013 Ry

     iteration # 14     ecut=   100.00 Ry     beta= 0.70
     Davidson diagonalization with overlap
     ethr =  4.48E-08,  avg # of iterations =  2.5

     total cpu time spent up to now is       19.4 secs

     total energy              =    -922.12719726 Ry
     Harris-Foulkes estimate   =    -922.12719996 Ry
     estimated scf accuracy    <       0.00001843 Ry

     iteration # 15     ecut=   100.00 Ry     beta= 0.70
     Davidson diagonalization with overlap
     ethr =  1.65E-08,  avg # of iterations =  4.0

     total cpu time spent up to now is       20.9 secs

     total energy              =    -922.12720337 Ry
     Harris-Foulkes estimate   =    -922.12720375 Ry
     estimated scf accuracy    <       0.00000513 Ry

     iteration # 16     ecut=   100.00 Ry     beta= 0.70
     Davidson diagonalization with overlap
     ethr =  4.58E-09,  avg # of iterations =  1.0

     total cpu time spent up to now is       21.7 secs

     total energy              =    -922.12720123 Ry
     Harris-Foulkes estimate   =    -922.12720342 Ry
     estimated scf accuracy    <       0.00000416 Ry

     iteration # 17     ecut=   100.00 Ry     beta= 0.70
     Davidson diagonalization with overlap
     ethr =  3.71E-09,  avg # of iterations =  5.0

     total cpu time spent up to now is       23.5 secs

     total energy              =    -922.12720238 Ry
     Harris-Foulkes estimate   =    -922.12720468 Ry
     estimated scf accuracy    <       0.00001329 Ry

     iteration # 18     ecut=   100.00 Ry     beta= 0.70
     Davidson diagonalization with overlap
     ethr =  3.71E-09,  avg # of iterations =  4.0

     total cpu time spent up to now is       24.8 secs

     total energy              =    -922.12720305 Ry
     Harris-Foulkes estimate   =    -922.12720316 Ry
     estimated scf accuracy    <       0.00000090 Ry

     iteration # 19     ecut=   100.00 Ry     beta= 0.70
     Davidson diagonalization with overlap
     ethr =  8.06E-10,  avg # of iterations =  2.8

     total cpu time spent up to now is       25.7 secs

     total energy              =    -922.12720298 Ry
     Harris-Foulkes estimate   =    -922.12720308 Ry
     estimated scf accuracy    <       0.00000056 Ry

     iteration # 20     ecut=   100.00 Ry     beta= 0.70
     Davidson diagonalization with overlap
     ethr =  4.97E-10,  avg # of iterations =  4.0

     total cpu time spent up to now is       27.1 secs

     total energy              =    -922.12720312 Ry
     Harris-Foulkes estimate   =    -922.12720310 Ry
     estimated scf accuracy    <       0.00000008 Ry

     iteration # 21     ecut=   100.00 Ry     beta= 0.70
     Davidson diagonalization with overlap
     ethr =  6.76E-11,  avg # of iterations =  4.2

     total cpu time spent up to now is       28.1 secs

     total energy              =    -922.12720312 Ry
     Harris-Foulkes estimate   =    -922.12720312 Ry
     estimated scf accuracy    <       0.00000015 Ry

     iteration # 22     ecut=   100.00 Ry     beta= 0.70
     Davidson diagonalization with overlap
     ethr =  6.76E-11,  avg # of iterations =  1.0

     total cpu time spent up to now is       28.9 secs

     total energy              =    -922.12720310 Ry
     Harris-Foulkes estimate   =    -922.12720312 Ry
     estimated scf accuracy    <       0.00000014 Ry

     iteration # 23     ecut=   100.00 Ry     beta= 0.70
     Davidson diagonalization with overlap
     ethr =  6.76E-11,  avg # of iterations =  1.5

     total cpu time spent up to now is       29.7 secs

     total energy              =    -922.12720308 Ry
     Harris-Foulkes estimate   =    -922.12720310 Ry
     estimated scf accuracy    <       0.00000009 Ry

     iteration # 24     ecut=   100.00 Ry     beta= 0.70
     Davidson diagonalization with overlap
     ethr =  6.76E-11,  avg # of iterations =  4.0

     total cpu time spent up to now is       30.9 secs

     total energy              =    -922.12720310 Ry
     Harris-Foulkes estimate   =    -922.12720310 Ry
     estimated scf accuracy    <          1.1E-09 Ry

     iteration # 25     ecut=   100.00 Ry     beta= 0.70
     Davidson diagonalization with overlap
     ethr =  9.46E-13,  avg # of iterations =  5.2

     total cpu time spent up to now is       32.8 secs

     total energy              =    -922.12720310 Ry
     Harris-Foulkes estimate   =    -922.12720310 Ry
     estimated scf accuracy    <          2.2E-09 Ry

     iteration # 26     ecut=   100.00 Ry     beta= 0.70
     Davidson diagonalization with overlap
     ethr =  9.46E-13,  avg # of iterations =  4.2

     total cpu time spent up to now is       34.2 secs

     total energy              =    -922.12720310 Ry
     Harris-Foulkes estimate   =    -922.12720310 Ry
     estimated scf accuracy    <          4.9E-09 Ry

     iteration # 27     ecut=   100.00 Ry     beta= 0.70
     Davidson diagonalization with overlap
     ethr =  9.46E-13,  avg # of iterations =  3.8

     total cpu time spent up to now is       35.1 secs

     total energy              =    -922.12720310 Ry
     Harris-Foulkes estimate   =    -922.12720310 Ry
     estimated scf accuracy    <          4.0E-09 Ry

     iteration # 28     ecut=   100.00 Ry     beta= 0.70
     Davidson diagonalization with overlap
     ethr =  9.46E-13,  avg # of iterations =  4.0

     total cpu time spent up to now is       36.4 secs

     total energy              =    -922.12720310 Ry
     Harris-Foulkes estimate   =    -922.12720310 Ry
     estimated scf accuracy    <          6.7E-10 Ry

     iteration # 29     ecut=   100.00 Ry     beta= 0.70
     Davidson diagonalization with overlap
     ethr =  6.00E-13,  avg # of iterations =  3.5

     total cpu time spent up to now is       37.5 secs

     End of self-consistent calculation

          k = 0.0000 0.0000 0.0000 ( 20843 PWs)   bands (ev):

   -59.9655 -59.9636 -59.9547 -59.9527 -34.0020 -33.9996 -33.9928 -33.9872
   -33.9076 -33.8543 -33.8278 -33.7981 -33.7957 -33.7769 -33.7638 -33.7613
   -13.5388 -13.4153 -12.4491 -12.3223 -12.2371 -12.1952 -11.8134 -11.8090
   -11.6506 -11.6303  -0.4144  -0.4013  -0.3566  -0.2454  -0.0685   0.3669
     1.0617   1.1092   1.3411   1.3454   1.5786   1.6166   1.8693   1.8706
     1.9086   2.0056   2.0830   2.0926   2.1928   2.2823   2.3780   2.5119
     2.5198   2.9114   3.0333   3.0602   3.1098   3.3296   3.3606   3.4254

          k = 0.0000 0.2638 0.0000 ( 20855 PWs)   bands (ev):

   -59.9655 -59.9635 -59.9547 -59.9527 -34.0037 -34.0012 -33.9960 -33.9904
   -33.9072 -33.8539 -33.8277 -33.7980 -33.7955 -33.7769 -33.7638 -33.7613
   -13.4660 -13.3530 -12.3855 -12.2950 -12.2339 -12.1766 -11.8218 -11.7992
   -11.6218 -11.5969  -0.4603  -0.4469  -0.3936  -0.2894  -0.2365   0.0400
     0.2965   0.4762   0.5192   0.6668   1.1631   1.3052   1.3625   1.8082
     1.8627   2.0705   2.2210   2.3178   2.4818   2.5483   2.6889   2.7953
     3.0419   3.0492   3.0943   3.2112   3.2295   3.5094   3.5826   3.7240

          k = 0.3333 0.0000 0.0000 ( 20831 PWs)   bands (ev):

   -59.9611 -59.9591 -59.9556 -59.9537 -33.9961 -33.9937 -33.9904 -33.9861
   -33.9040 -33.8767 -33.8637 -33.8542 -33.8078 -33.8024 -33.7867 -33.7760
   -12.9608 -12.8194 -12.3460 -12.1812 -12.1711 -12.1457 -11.7521 -11.7418
   -11.7096 -11.6672  -0.9215  -0.8449  -0.0949  -0.0903   0.0336   0.3640
     0.4919   0.8759   0.8814   1.1805   1.2157   1.2527   1.6202   1.7572
     1.7673   1.9322   2.0104   2.0277   2.1117   2.1756   2.2688   2.3177
     2.3507   2.7521   3.0389   3.1221   3.2064   3.3952   3.5731   3.6405

          k = 0.3333 0.2638 0.0000 ( 20812 PWs)   bands (ev):

   -59.9610 -59.9591 -59.9556 -59.9537 -33.9980 -33.9956 -33.9932 -33.9888
   -33.9036 -33.8765 -33.8634 -33.8539 -33.8078 -33.8024 -33.7867 -33.7760
   -12.8975 -12.7722 -12.3048 -12.1780 -12.1548 -12.1298 -11.7388 -11.7194
   -11.6409 -11.6232  -0.9237  -0.8452  -0.1652  -0.1566  -0.0886   0.1627
     0.2649   0.4022   0.4499   0.6799   0.7368   0.9560   1.2987   1.3253
     1.4368   1.4759   1.6007   1.6961   1.8595   2.3017   2.5252   2.7186
     2.9910   2.9966   3.3806   3.5734   3.6009   3.7583   3.8030   3.8082

     highest occupied level (ev):     3.8082

!    total energy              =    -922.12720310 Ry
     Harris-Foulkes estimate   =    -922.12720310 Ry
     estimated scf accuracy    <          4.8E-11 Ry

     The total energy is the sum of the following terms:

     one-electron contribution =    -591.03456414 Ry
     hartree contribution      =     334.87873551 Ry
     xc contribution           =    -174.09973194 Ry
     ewald contribution        =    -491.74104654 Ry
     Dispersion Correction     =      -0.13059599 Ry

     convergence has been achieved in  29 iterations

     Forces acting on atoms (cartesian axes, Ry/au):

     atom    1 type  1   force =    -0.00000000   -0.00002180    0.00001418
     atom    2 type  1   force =     0.00000000    0.00002180   -0.00001418
     atom    3 type  1   force =     0.00000000    0.00002180    0.00001418
     atom    4 type  1   force =     0.00000000   -0.00002180   -0.00001418
     atom    5 type  2   force =     0.00000000   -0.00003370    0.00007608
     atom    6 type  2   force =     0.00000000    0.00003370   -0.00007608
     atom    7 type  2   force =     0.00000000    0.00003370    0.00007608
     atom    8 type  2   force =     0.00000000   -0.00003370   -0.00007608
     atom    9 type  2   force =     0.00000000    0.00004833    0.00008968
     atom   10 type  2   force =     0.00000000   -0.00004833   -0.00008968
     atom   11 type  2   force =     0.00000000   -0.00004833    0.00008968
     atom   12 type  2   force =     0.00000000    0.00001965    0.00000000
     atom   13 type  2   force =     0.00000000   -0.00001965    0.00000000
     atom   14 type  2   force =     0.00000000    0.00004833   -0.00008968

     Total force =     0.000270     Total SCF correction =     0.000025


     Computing stress (Cartesian axis) and pressure

          total   stress  (Ry/bohr**3)                   (kbar)     P=    1.74
   0.00001156   0.00000000   0.00000000          1.70      0.00      0.00
   0.00000000   0.00001196   0.00000000          0.00      1.76      0.00
   0.00000000   0.00000000   0.00001198          0.00      0.00      1.76


     BFGS Geometry Optimization

     number of scf cycles    =   1
     number of bfgs steps    =   0

     enthalpy new            =    -922.1272030959 Ry

     new trust radius        =       0.0021034884 bohr
     new conv_thr            =            1.0E-10 Ry

     new unit-cell volume =   1234.67244 a.u.^3 (   182.95958 Ang^3 )
     density =      3.30148 g/cm^3

CELL_PARAMETERS (alat=  6.68268247)
   1.000288979   0.000000000   0.000000000
   0.000000000   1.264037440   0.000000000
   0.000000000   0.000000000   3.272004217

ATOMIC_POSITIONS (crystal)
V       -0.000000000   0.382886945   0.648079028
V        0.500000002   0.617113059   0.851920977
V        0.500000002   0.617113059   0.148079027
V        0.000000000   0.382886945   0.351920975
O        0.500000002   0.492370693   0.681294168
O        0.000000000   0.507629311   0.818705837
O        0.000000000   0.507629311   0.181294167
O        0.500000002   0.492370693   0.318705835
O        0.000000000   0.028869644   0.354172298
O        0.500000002   0.971130360   0.145827705
O        0.500000002   0.971130360   0.854172299
O        0.500000002   0.509145947   0.000000000
O        0.000000000   0.490854057   0.500000002
O        0.000000000   0.028869644   0.645827707



     Writing output data file v2o5.save/
     NEW-OLD atomic charge density approx. for the potential
     extrapolated charge  112.09934, renormalised to  112.00000

     total cpu time spent up to now is       40.6 secs

     Self-consistent Calculation

     iteration #  1     ecut=   100.00 Ry     beta= 0.70
     Davidson diagonalization with overlap
     ethr =  1.00E-06,  avg # of iterations =  5.0

     total cpu time spent up to now is       42.4 secs

     total energy              =    -922.12436271 Ry
     Harris-Foulkes estimate   =    -921.69688443 Ry
     estimated scf accuracy    <       0.00276539 Ry

     iteration #  2     ecut=   100.00 Ry     beta= 0.70
     Davidson diagonalization with overlap
     ethr =  2.47E-06,  avg # of iterations =  5.8

     total cpu time spent up to now is       44.5 secs

     total energy              =    -922.12145232 Ry
     Harris-Foulkes estimate   =    -922.13648737 Ry
     estimated scf accuracy    <       0.07890444 Ry

     iteration #  3     ecut=   100.00 Ry     beta= 0.70
     Davidson diagonalization with overlap
     ethr =  2.47E-06,  avg # of iterations =  5.0

     total cpu time spent up to now is       46.6 secs

     total energy              =    -922.12727176 Ry
     Harris-Foulkes estimate   =    -922.12747985 Ry
     estimated scf accuracy    <       0.00152225 Ry

     iteration #  4     ecut=   100.00 Ry     beta= 0.70
     Davidson diagonalization with overlap
     ethr =  1.36E-06,  avg # of iterations =  1.0

     total cpu time spent up to now is       47.4 secs

     total energy              =    -922.12716330 Ry
     Harris-Foulkes estimate   =    -922.12729954 Ry
     estimated scf accuracy    <       0.00106850 Ry

     iteration #  5     ecut=   100.00 Ry     beta= 0.70
     Davidson diagonalization with overlap
     ethr =  9.54E-07,  avg # of iterations =  2.0

     total cpu time spent up to now is       48.3 secs

     total energy              =    -922.12718640 Ry
     Harris-Foulkes estimate   =    -922.12719417 Ry
     estimated scf accuracy    <       0.00056418 Ry

     iteration #  6     ecut=   100.00 Ry     beta= 0.70
     Davidson diagonalization with overlap
     ethr =  5.04E-07,  avg # of iterations =  1.0

     total cpu time spent up to now is       49.1 secs

     total energy              =    -922.12719805 Ry
     Harris-Foulkes estimate   =    -922.12719915 Ry
     estimated scf accuracy    <       0.00049969 Ry

     iteration #  7     ecut=   100.00 Ry     beta= 0.70
     Davidson diagonalization with overlap
     ethr =  4.46E-07,  avg # of iterations =  1.0

     total cpu time spent up to now is       49.9 secs

     total energy              =    -922.12720324 Ry
     Harris-Foulkes estimate   =    -922.12720482 Ry
     estimated scf accuracy    <       0.00042005 Ry

     iteration #  8     ecut=   100.00 Ry     beta= 0.70
     Davidson diagonalization with overlap
     ethr =  3.75E-07,  avg # of iterations =  1.0

     total cpu time spent up to now is       50.7 secs

     total energy              =    -922.12720623 Ry
     Harris-Foulkes estimate   =    -922.12720887 Ry
     estimated scf accuracy    <       0.00036247 Ry

     iteration #  9     ecut=   100.00 Ry     beta= 0.70
     Davidson diagonalization with overlap
     ethr =  3.24E-07,  avg # of iterations =  1.0

     total cpu time spent up to now is       51.4 secs

     total energy              =    -922.12720784 Ry
     Harris-Foulkes estimate   =    -922.12721042 Ry
     estimated scf accuracy    <       0.00031640 Ry

     iteration # 10     ecut=   100.00 Ry     beta= 0.70
     Davidson diagonalization with overlap
     ethr =  2.83E-07,  avg # of iterations =  1.0

     total cpu time spent up to now is       52.2 secs

     total energy              =    -922.12716938 Ry
     Harris-Foulkes estimate   =    -922.12721117 Ry
     estimated scf accuracy    <       0.00027615 Ry

     iteration # 11     ecut=   100.00 Ry     beta= 0.70
     Davidson diagonalization with overlap
     ethr =  2.47E-07,  avg # of iterations =  4.0

     total cpu time spent up to now is       53.2 secs

     total energy              =    -922.12720395 Ry
     Harris-Foulkes estimate   =    -922.12720830 Ry
     estimated scf accuracy    <       0.00003719 Ry

     iteration # 12     ecut=   100.00 Ry     beta= 0.70
     Davidson diagonalization with overlap
     ethr =  3.32E-08,  avg # of iterations =  4.5

     total cpu time spent up to now is       54.7 secs

     total energy              =    -922.12722285 Ry
     Harris-Foulkes estimate   =    -922.12721833 Ry
     estimated scf accuracy    <       0.00005172 Ry

     iteration # 13     ecut=   100.00 Ry     beta= 0.70
     Davidson diagonalization with overlap
     ethr =  3.32E-08,  avg # of iterations =  2.5

     total cpu time spent up to now is       55.5 secs

     total energy              =    -922.12719941 Ry
     Harris-Foulkes estimate   =    -922.12722364 Ry
     estimated scf accuracy    <       0.00007350 Ry

     iteration # 14     ecut=   100.00 Ry     beta= 0.70
     Davidson diagonalization with overlap
     ethr =  3.32E-08,  avg # of iterations =  4.8

     total cpu time spent up to now is       57.1 secs

     total energy              =    -922.12720893 Ry
     Harris-Foulkes estimate   =    -922.12721309 Ry
     estimated scf accuracy    <       0.00001430 Ry

     iteration # 15     ecut=   100.00 Ry     beta= 0.70
     Davidson diagonalization with overlap
     ethr =  1.28E-08,  avg # of iterations =  4.0

     total cpu time spent up to now is       58.2 secs

     total energy              =    -922.12720957 Ry
     Harris-Foulkes estimate   =    -922.12721023 Ry
     estimated scf accuracy    <       0.00000181 Ry

     iteration # 16     ecut=   100.00 Ry     beta= 0.70
     Davidson diagonalization with overlap
     ethr =  1.62E-09,  avg # of iterations =  4.5

     total cpu time spent up to now is       59.9 secs

     total energy              =    -922.12721071 Ry
     Harris-Foulkes estimate   =    -922.12721077 Ry
     estimated scf accuracy    <       0.00000122 Ry

     iteration # 17     ecut=   100.00 Ry     beta= 0.70
     Davidson diagonalization with overlap
     ethr =  1.09E-09,  avg # of iterations =  1.0

     total cpu time spent up to now is       60.7 secs

     total energy              =    -922.12721045 Ry
     Harris-Foulkes estimate   =    -922.12721072 Ry
     estimated scf accuracy    <       0.00000106 Ry

     iteration # 18     ecut=   100.00 Ry     beta= 0.70
     Davidson diagonalization with overlap
     ethr =  9.42E-10,  avg # of iterations =  3.2

     total cpu time spent up to now is       61.7 secs

     total energy              =    -922.12721048 Ry
     Harris-Foulkes estimate   =    -922.12721053 Ry
     estimated scf accuracy    <       0.00000019 Ry

     iteration # 19     ecut=   100.00 Ry     beta= 0.70
     Davidson diagonalization with overlap
     ethr =  1.73E-10,  avg # of iterations =  4.5

     total cpu time spent up to now is       63.3 secs

     total energy              =    -922.12721054 Ry
     Harris-Foulkes estimate   =    -922.12721057 Ry
     estimated scf accuracy    <       0.00000016 Ry

     iteration # 20     ecut=   100.00 Ry     beta= 0.70
     Davidson diagonalization with overlap
     ethr =  1.41E-10,  avg # of iterations =  1.8

     total cpu time spent up to now is       64.1 secs

     total energy              =    -922.12721052 Ry
     Harris-Foulkes estimate   =    -922.12721054 Ry
     estimated scf accuracy    <       0.00000007 Ry

     iteration # 21     ecut=   100.00 Ry     beta= 0.70
     Davidson diagonalization with overlap
     ethr =  6.25E-11,  avg # of iterations =  4.0

     total cpu time spent up to now is       65.6 secs

     total energy              =    -922.12721054 Ry
     Harris-Foulkes estimate   =    -922.12721055 Ry
     estimated scf accuracy    <       0.00000004 Ry

     iteration # 22     ecut=   100.00 Ry     beta= 0.70
     Davidson diagonalization with overlap
     ethr =  3.63E-11,  avg # of iterations =  1.2

     total cpu time spent up to now is       66.4 secs

     total energy              =    -922.12721054 Ry
     Harris-Foulkes estimate   =    -922.12721054 Ry
     estimated scf accuracy    <       0.00000002 Ry

     iteration # 23     ecut=   100.00 Ry     beta= 0.70
     Davidson diagonalization with overlap
     ethr =  1.64E-11,  avg # of iterations =  4.0

     total cpu time spent up to now is       67.7 secs

     total energy              =    -922.12721054 Ry
     Harris-Foulkes estimate   =    -922.12721055 Ry
     estimated scf accuracy    <          4.0E-09 Ry

     iteration # 24     ecut=   100.00 Ry     beta= 0.70
     Davidson diagonalization with overlap
     ethr =  3.57E-12,  avg # of iterations =  1.8

     total cpu time spent up to now is       68.5 secs

     total energy              =    -922.12721054 Ry
     Harris-Foulkes estimate   =    -922.12721054 Ry
     estimated scf accuracy    <          3.0E-09 Ry

     iteration # 25     ecut=   100.00 Ry     beta= 0.70
     Davidson diagonalization with overlap
     ethr =  2.66E-12,  avg # of iterations =  1.0

     total cpu time spent up to now is       69.3 secs

     total energy              =    -922.12721054 Ry
     Harris-Foulkes estimate   =    -922.12721054 Ry
     estimated scf accuracy    <          1.6E-09 Ry

     iteration # 26     ecut=   100.00 Ry     beta= 0.70
     Davidson diagonalization with overlap
     ethr =  1.45E-12,  avg # of iterations =  4.0

     total cpu time spent up to now is       70.9 secs

     total energy              =    -922.12721054 Ry
     Harris-Foulkes estimate   =    -922.12721054 Ry
     estimated scf accuracy    <          2.5E-09 Ry

     iteration # 27     ecut=   100.00 Ry     beta= 0.70
     Davidson diagonalization with overlap
     ethr =  1.45E-12,  avg # of iterations =  1.0

     total cpu time spent up to now is       71.7 secs

     total energy              =    -922.12721054 Ry
     Harris-Foulkes estimate   =    -922.12721054 Ry
     estimated scf accuracy    <          2.0E-09 Ry

     iteration # 28     ecut=   100.00 Ry     beta= 0.70
     Davidson diagonalization with overlap
     ethr =  1.45E-12,  avg # of iterations =  1.0

     total cpu time spent up to now is       72.5 secs

     total energy              =    -922.12721054 Ry
     Harris-Foulkes estimate   =    -922.12721054 Ry
     estimated scf accuracy    <          1.0E-09 Ry

     iteration # 29     ecut=   100.00 Ry     beta= 0.70
     Davidson diagonalization with overlap
     ethr =  9.16E-13,  avg # of iterations =  1.0

     total cpu time spent up to now is       73.3 secs

     total energy              =    -922.12721054 Ry
     Harris-Foulkes estimate   =    -922.12721054 Ry
     estimated scf accuracy    <          1.1E-09 Ry

     iteration # 30     ecut=   100.00 Ry     beta= 0.70
     Davidson diagonalization with overlap
     ethr =  9.16E-13,  avg # of iterations =  1.0

     total cpu time spent up to now is       74.1 secs

     total energy              =    -922.12721054 Ry
     Harris-Foulkes estimate   =    -922.12721054 Ry
     estimated scf accuracy    <          9.3E-10 Ry

     iteration # 31     ecut=   100.00 Ry     beta= 0.70
     Davidson diagonalization with overlap
     ethr =  8.30E-13,  avg # of iterations =  3.8

     total cpu time spent up to now is       75.1 secs

     End of self-consistent calculation

          k = 0.0000 0.0000 0.0000 ( 20843 PWs)   bands (ev):

   -59.9777 -59.9757 -59.9669 -59.9649 -34.0128 -34.0104 -34.0037 -33.9981
   -33.9191 -33.8659 -33.8395 -33.8100 -33.8075 -33.7889 -33.7758 -33.7733
   -13.5453 -13.4220 -12.4573 -12.3300 -12.2448 -12.2038 -11.8229 -11.8185
   -11.6605 -11.6402  -0.4212  -0.4081  -0.3628  -0.2514  -0.0759   0.3593
     1.0548   1.1022   1.3337   1.3381   1.5705   1.6084   1.8597   1.8613
     1.8990   1.9962   2.0754   2.0836   2.1852   2.2739   2.3696   2.5024
     2.5118   2.9022   3.0233   3.0503   3.1011   3.3206   3.3517   3.4157

          k = 0.0000 0.2637 0.0000 ( 20855 PWs)   bands (ev):

   -59.9776 -59.9757 -59.9669 -59.9649 -34.0145 -34.0121 -34.0069 -34.0013
   -33.9187 -33.8655 -33.8395 -33.8098 -33.8074 -33.7889 -33.7758 -33.7733
   -13.4726 -13.3598 -12.3938 -12.3027 -12.2417 -12.1852 -11.8314 -11.8089
   -11.6319 -11.6071  -0.4670  -0.4537  -0.3997  -0.2952  -0.2429   0.0341
     0.2890   0.4687   0.5125   0.6605   1.1547   1.2977   1.3549   1.7994
     1.8543   2.0630   2.2133   2.3082   2.4721   2.5394   2.6797   2.7856
     3.0319   3.0392   3.0850   3.2021   3.2205   3.5002   3.5729   3.7143

          k = 0.3332 0.0000 0.0000 ( 20831 PWs)   bands (ev):

   -59.9732 -59.9713 -59.9678 -59.9659 -34.0069 -34.0045 -34.0013 -33.9970
   -33.9154 -33.8883 -33.8753 -33.8658 -33.8197 -33.8142 -33.7986 -33.7879
   -12.9682 -12.8271 -12.3543 -12.1896 -12.1796 -12.1545 -11.7618 -11.7514
   -11.7195 -11.6771  -0.9277  -0.8514  -0.1019  -0.0963   0.0261   0.3566
     0.4849   0.8686   0.8750   1.1736   1.2085   1.2456   1.6126   1.7491
     1.7592   1.9234   2.0010   2.0196   2.1017   2.1673   2.2583   2.3085
     2.3418   2.7433   3.0303   3.1125   3.1977   3.3862   3.5640   3.6308

          k = 0.3332 0.2637 0.0000 ( 20812 PWs)   bands (ev):

   -59.9732 -59.9712 -59.9678 -59.9659 -34.0089 -34.0065 -34.0040 -33.9997
   -33.9151 -33.8880 -33.8750 -33.8656 -33.8197 -33.8142 -33.7986 -33.7880
   -12.9050 -12.7800 -12.3130 -12.1864 -12.1635 -12.1386 -11.7486 -11.7293
   -11.6510 -11.6333  -0.9299  -0.8517  -0.1711  -0.1632  -0.0953   0.1569
     0.2578   0.3958   0.4431   0.6733   0.7298   0.9484   1.2900   1.3182
     1.4286   1.4679   1.5921   1.6880   1.8508   2.2930   2.5166   2.7093
     2.9814   2.9869   3.3711   3.5640   3.5915   3.7488   3.7931   3.7988

     highest occupied level (ev):     3.7988

!    total energy              =    -922.12721054 Ry
     Harris-Foulkes estimate   =    -922.12721054 Ry
     estimated scf accuracy    <          8.1E-11 Ry

     The total energy is the sum of the following terms:

     one-electron contribution =    -591.26436208 Ry
     hartree contribution      =     334.95026913 Ry
     xc contribution           =    -174.09171115 Ry
     ewald contribution        =    -491.59093415 Ry
     Dispersion Correction     =      -0.13047229 Ry

     convergence has been achieved in  31 iterations

     Forces acting on atoms (cartesian axes, Ry/au):

     atom    1 type  1   force =     0.00000000   -0.00052832   -0.00015849
     atom    2 type  1   force =     0.00000000    0.00052832    0.00015849
     atom    3 type  1   force =     0.00000000    0.00052832   -0.00015849
     atom    4 type  1   force =     0.00000000   -0.00052832    0.00015849
     atom    5 type  2   force =     0.00000000   -0.00016279    0.00015024
     atom    6 type  2   force =     0.00000000    0.00016279   -0.00015024
     atom    7 type  2   force =     0.00000000    0.00016279    0.00015024
     atom    8 type  2   force =     0.00000000   -0.00016279   -0.00015024
     atom    9 type  2   force =     0.00000000    0.00096590    0.00005633
     atom   10 type  2   force =    -0.00000000   -0.00096590   -0.00005633
     atom   11 type  2   force =     0.00000000   -0.00096590    0.00005633
     atom   12 type  2   force =     0.00000000    0.00029733    0.00000000
     atom   13 type  2   force =     0.00000000   -0.00029733    0.00000000
     atom   14 type  2   force =     0.00000000    0.00096590   -0.00005633

     Total force =     0.002310     Total SCF correction =     0.000013


     Computing stress (Cartesian axis) and pressure

          total   stress  (Ry/bohr**3)                   (kbar)     P=    0.21
   0.00000193   0.00000000   0.00000000          0.28      0.00      0.00
   0.00000000   0.00000070   0.00000000          0.00      0.10      0.00
   0.00000000   0.00000000   0.00000156          0.00      0.00      0.23


     number of scf cycles    =   2
     number of bfgs steps    =   1

     enthalpy old            =    -922.1272030959 Ry
     enthalpy new            =    -922.1272105445 Ry

     CASE: enthalpy_new < enthalpy_old

     new trust radius        =       0.0015127544 bohr
     new conv_thr            =            1.0E-12 Ry

     new unit-cell volume =   1235.42618 a.u.^3 (   183.07127 Ang^3 )
     density =      3.29947 g/cm^3

CELL_PARAMETERS (alat=  6.68268247)
   1.000504301   0.000000000   0.000000000
   0.000000000   1.264271074   0.000000000
   0.000000000   0.000000000   3.272692192

ATOMIC_POSITIONS (crystal)
V        0.000000000   0.382812605   0.648070934
V        0.500000002   0.617187399   0.851929071
V        0.500000002   0.617187399   0.148070933
V        0.000000000   0.382812605   0.351929069
O        0.500000002   0.492346029   0.681304094
O        0.000000000   0.507653975   0.818695911
O        0.000000000   0.507653975   0.181304093
O        0.500000002   0.492346029   0.318695909
O        0.000000000   0.029006108   0.354177559
O        0.500000002   0.970993896   0.145822444
O        0.500000002   0.970993896   0.854177560
O        0.500000002   0.509188266   0.000000000
O        0.000000000   0.490811738   0.500000002
O        0.000000000   0.029006108   0.645822446



     Writing output data file v2o5.save/
     NEW-OLD atomic charge density approx. for the potential
     extrapolated charge  112.06833, renormalised to  112.00000

     total cpu time spent up to now is       78.2 secs

     Self-consistent Calculation

     iteration #  1     ecut=   100.00 Ry     beta= 0.70
     Davidson diagonalization with overlap
     ethr =  1.00E-06,  avg # of iterations =  4.0

     total cpu time spent up to now is       79.9 secs

     total energy              =    -922.12618429 Ry
     Harris-Foulkes estimate   =    -921.83097856 Ry
     estimated scf accuracy    <       0.00095330 Ry

     iteration #  2     ecut=   100.00 Ry     beta= 0.70
     Davidson diagonalization with overlap
     ethr =  8.51E-07,  avg # of iterations =  5.8

     total cpu time spent up to now is       82.0 secs

     total energy              =    -922.12532596 Ry
     Harris-Foulkes estimate   =    -922.13039270 Ry
     estimated scf accuracy    <       0.02627191 Ry

     iteration #  3     ecut=   100.00 Ry     beta= 0.70
     Davidson diagonalization with overlap
     ethr =  8.51E-07,  avg # of iterations =  5.0

     total cpu time spent up to now is       84.1 secs

     total energy              =    -922.12724164 Ry
     Harris-Foulkes estimate   =    -922.12732083 Ry
     estimated scf accuracy    <       0.00057656 Ry

     iteration #  4     ecut=   100.00 Ry     beta= 0.70
     Davidson diagonalization with overlap
     ethr =  5.15E-07,  avg # of iterations =  1.0

     total cpu time spent up to now is       84.9 secs

     total energy              =    -922.12719028 Ry
     Harris-Foulkes estimate   =    -922.12725125 Ry
     estimated scf accuracy    <       0.00041068 Ry

     iteration #  5     ecut=   100.00 Ry     beta= 0.70
     Davidson diagonalization with overlap
     ethr =  3.67E-07,  avg # of iterations =  2.2

     total cpu time spent up to now is       85.8 secs

     total energy              =    -922.12720720 Ry
     Harris-Foulkes estimate   =    -922.12720387 Ry
     estimated scf accuracy    <       0.00019102 Ry

     iteration #  6     ecut=   100.00 Ry     beta= 0.70
     Davidson diagonalization with overlap
     ethr =  1.71E-07,  avg # of iterations =  1.2

     total cpu time spent up to now is       86.5 secs

     total energy              =    -922.12721182 Ry
     Harris-Foulkes estimate   =    -922.12721232 Ry
     estimated scf accuracy    <       0.00018422 Ry

     iteration #  7     ecut=   100.00 Ry     beta= 0.70
     Davidson diagonalization with overlap
     ethr =  1.64E-07,  avg # of iterations =  1.0

     total cpu time spent up to now is       87.3 secs

     total energy              =    -922.12720914 Ry
     Harris-Foulkes estimate   =    -922.12721413 Ry
     estimated scf accuracy    <       0.00015474 Ry

     iteration #  8     ecut=   100.00 Ry     beta= 0.70
     Davidson diagonalization with overlap
     ethr =  1.38E-07,  avg # of iterations =  1.0

     total cpu time spent up to now is       88.0 secs

     total energy              =    -922.12721040 Ry
     Harris-Foulkes estimate   =    -922.12721135 Ry
     estimated scf accuracy    <       0.00012831 Ry

     iteration #  9     ecut=   100.00 Ry     beta= 0.70
     Davidson diagonalization with overlap
     ethr =  1.15E-07,  avg # of iterations =  1.0

     total cpu time spent up to now is       88.8 secs

     total energy              =    -922.12720449 Ry
     Harris-Foulkes estimate   =    -922.12721212 Ry
     estimated scf accuracy    <       0.00011030 Ry

     iteration # 10     ecut=   100.00 Ry     beta= 0.70
     Davidson diagonalization with overlap
     ethr =  9.85E-08,  avg # of iterations =  1.0

     total cpu time spent up to now is       89.6 secs

     total energy              =    -922.12717843 Ry
     Harris-Foulkes estimate   =    -922.12720675 Ry
     estimated scf accuracy    <       0.00007977 Ry

     iteration # 11     ecut=   100.00 Ry     beta= 0.70
     Davidson diagonalization with overlap
     ethr =  7.12E-08,  avg # of iterations =  5.0

     total cpu time spent up to now is       91.3 secs

     total energy              =    -922.12721956 Ry
     Harris-Foulkes estimate   =    -922.12723013 Ry
     estimated scf accuracy    <       0.00013480 Ry

     iteration # 12     ecut=   100.00 Ry     beta= 0.70
     Davidson diagonalization with overlap
     ethr =  7.12E-08,  avg # of iterations =  1.0

     total cpu time spent up to now is       92.1 secs

     total energy              =    -922.12722488 Ry
     Harris-Foulkes estimate   =    -922.12722013 Ry
     estimated scf accuracy    <       0.00010473 Ry

     iteration # 13     ecut=   100.00 Ry     beta= 0.70
     Davidson diagonalization with overlap
     ethr =  7.12E-08,  avg # of iterations =  1.0

     total cpu time spent up to now is       92.9 secs

     total energy              =    -922.12721702 Ry
     Harris-Foulkes estimate   =    -922.12722514 Ry
     estimated scf accuracy    <       0.00011263 Ry

     iteration # 14     ecut=   100.00 Ry     beta= 0.70
     Davidson diagonalization with overlap
     ethr =  7.12E-08,  avg # of iterations =  1.0

     total cpu time spent up to now is       93.7 secs

     total energy              =    -922.12719226 Ry
     Harris-Foulkes estimate   =    -922.12721784 Ry
     estimated scf accuracy    <       0.00007843 Ry

     iteration # 15     ecut=   100.00 Ry     beta= 0.70
     Davidson diagonalization with overlap
     ethr =  7.00E-08,  avg # of iterations =  4.0

     total cpu time spent up to now is       95.2 secs

     total energy              =    -922.12721699 Ry
     Harris-Foulkes estimate   =    -922.12721755 Ry
     estimated scf accuracy    <       0.00003995 Ry

     iteration # 16     ecut=   100.00 Ry     beta= 0.70
     Davidson diagonalization with overlap
     ethr =  3.57E-08,  avg # of iterations =  1.0

     total cpu time spent up to now is       96.0 secs

     total energy              =    -922.12721622 Ry
     Harris-Foulkes estimate   =    -922.12721714 Ry
     estimated scf accuracy    <       0.00003880 Ry

     iteration # 17     ecut=   100.00 Ry     beta= 0.70
     Davidson diagonalization with overlap
     ethr =  3.46E-08,  avg # of iterations =  1.0

     total cpu time spent up to now is       96.8 secs

     total energy              =    -922.12721662 Ry
     Harris-Foulkes estimate   =    -922.12721630 Ry
     estimated scf accuracy    <       0.00003564 Ry

     iteration # 18     ecut=   100.00 Ry     beta= 0.70
     Davidson diagonalization with overlap
     ethr =  3.18E-08,  avg # of iterations =  1.0

     total cpu time spent up to now is       97.6 secs

     total energy              =    -922.12721602 Ry
     Harris-Foulkes estimate   =    -922.12721666 Ry
     estimated scf accuracy    <       0.00003585 Ry

     iteration # 19     ecut=   100.00 Ry     beta= 0.70
     Davidson diagonalization with overlap
     ethr =  3.18E-08,  avg # of iterations =  1.0

     total cpu time spent up to now is       98.4 secs

     total energy              =    -922.12721399 Ry
     Harris-Foulkes estimate   =    -922.12721606 Ry
     estimated scf accuracy    <       0.00003298 Ry

     iteration # 20     ecut=   100.00 Ry     beta= 0.70
     Davidson diagonalization with overlap
     ethr =  2.94E-08,  avg # of iterations =  1.0

     total cpu time spent up to now is       99.2 secs

     total energy              =    -922.12721003 Ry
     Harris-Foulkes estimate   =    -922.12721417 Ry
     estimated scf accuracy    <       0.00002444 Ry

     iteration # 21     ecut=   100.00 Ry     beta= 0.70
     Davidson diagonalization with overlap
     ethr =  2.18E-08,  avg # of iterations =  3.0

     total cpu time spent up to now is      100.1 secs

     total energy              =    -922.12721122 Ry
     Harris-Foulkes estimate   =    -922.12721194 Ry
     estimated scf accuracy    <       0.00000236 Ry

     iteration # 22     ecut=   100.00 Ry     beta= 0.70
     Davidson diagonalization with overlap
     ethr =  2.11E-09,  avg # of iterations =  5.0

     total cpu time spent up to now is      101.9 secs

     total energy              =    -922.12721265 Ry
     Harris-Foulkes estimate   =    -922.12721346 Ry
     estimated scf accuracy    <       0.00000461 Ry

     iteration # 23     ecut=   100.00 Ry     beta= 0.70
     Davidson diagonalization with overlap
     ethr =  2.11E-09,  avg # of iterations =  3.5

     total cpu time spent up to now is      103.0 secs

     total energy              =    -922.12721280 Ry
     Harris-Foulkes estimate   =    -922.12721286 Ry
     estimated scf accuracy    <       0.00000079 Ry

     iteration # 24     ecut=   100.00 Ry     beta= 0.70
     Davidson diagonalization with overlap
     ethr =  7.08E-10,  avg # of iterations =  4.0

     total cpu time spent up to now is      104.1 secs

     total energy              =    -922.12721287 Ry
     Harris-Foulkes estimate   =    -922.12721289 Ry
     estimated scf accuracy    <       0.00000020 Ry

     iteration # 25     ecut=   100.00 Ry     beta= 0.70
     Davidson diagonalization with overlap
     ethr =  1.79E-10,  avg # of iterations =  4.0

     total cpu time spent up to now is      105.2 secs

     total energy              =    -922.12721288 Ry
     Harris-Foulkes estimate   =    -922.12721289 Ry
     estimated scf accuracy    <       0.00000005 Ry

     iteration # 26     ecut=   100.00 Ry     beta= 0.70
     Davidson diagonalization with overlap
     ethr =  4.24E-11,  avg # of iterations =  4.8

     total cpu time spent up to now is      106.6 secs

     total energy              =    -922.12721290 Ry
     Harris-Foulkes estimate   =    -922.12721290 Ry
     estimated scf accuracy    <       0.00000001 Ry

     iteration # 27     ecut=   100.00 Ry     beta= 0.70
     Davidson diagonalization with overlap
     ethr =  1.24E-11,  avg # of iterations =  2.0

     total cpu time spent up to now is      107.4 secs

     total energy              =    -922.12721290 Ry
     Harris-Foulkes estimate   =    -922.12721290 Ry
     estimated scf accuracy    <          1.0E-08 Ry

     iteration # 28     ecut=   100.00 Ry     beta= 0.70
     Davidson diagonalization with overlap
     ethr =  8.92E-12,  avg # of iterations =  4.0

     total cpu time spent up to now is      108.9 secs

     total energy              =    -922.12721290 Ry
     Harris-Foulkes estimate   =    -922.12721290 Ry
     estimated scf accuracy    <          5.2E-09 Ry

     iteration # 29     ecut=   100.00 Ry     beta= 0.70
     Davidson diagonalization with overlap
     ethr =  4.60E-12,  avg # of iterations =  4.2

     total cpu time spent up to now is      110.4 secs

     total energy              =    -922.12721290 Ry
     Harris-Foulkes estimate   =    -922.12721290 Ry
     estimated scf accuracy    <          2.8E-09 Ry

     iteration # 30     ecut=   100.00 Ry     beta= 0.70
     Davidson diagonalization with overlap
     ethr =  2.49E-12,  avg # of iterations =  1.0

     total cpu time spent up to now is      111.2 secs

     total energy              =    -922.12721290 Ry
     Harris-Foulkes estimate   =    -922.12721290 Ry
     estimated scf accuracy    <          2.7E-09 Ry

     iteration # 31     ecut=   100.00 Ry     beta= 0.70
     Davidson diagonalization with overlap
     ethr =  2.44E-12,  avg # of iterations =  3.5

     total cpu time spent up to now is      112.2 secs

     total energy              =    -922.12721290 Ry
     Harris-Foulkes estimate   =    -922.12721290 Ry
     estimated scf accuracy    <          3.6E-10 Ry

     iteration # 32     ecut=   100.00 Ry     beta= 0.70
     Davidson diagonalization with overlap
     ethr =  3.22E-13,  avg # of iterations =  4.5

     total cpu time spent up to now is      113.9 secs

     total energy              =    -922.12721290 Ry
     Harris-Foulkes estimate   =    -922.12721290 Ry
     estimated scf accuracy    <          2.7E-10 Ry

     iteration # 33     ecut=   100.00 Ry     beta= 0.70
     Davidson diagonalization with overlap
     ethr =  2.42E-13,  avg # of iterations =  4.0

     total cpu time spent up to now is      115.4 secs

     total energy              =    -922.12721290 Ry
     Harris-Foulkes estimate   =    -922.12721290 Ry
     estimated scf accuracy    <          1.7E-09 Ry

     iteration # 34     ecut=   100.00 Ry     beta= 0.70
     Davidson diagonalization with overlap
     ethr =  2.42E-13,  avg # of iterations =  4.0

     total cpu time spent up to now is      116.6 secs

     total energy              =    -922.12721290 Ry
     Harris-Foulkes estimate   =    -922.12721290 Ry
     estimated scf accuracy    <          5.3E-10 Ry

     iteration # 35     ecut=   100.00 Ry     beta= 0.70
     Davidson diagonalization with overlap
     ethr =  2.42E-13,  avg # of iterations =  3.8

     total cpu time spent up to now is      117.6 secs

     total energy              =    -922.12721290 Ry
     Harris-Foulkes estimate   =    -922.12721290 Ry
     estimated scf accuracy    <          1.7E-10 Ry

     iteration # 36     ecut=   100.00 Ry     beta= 0.70
     Davidson diagonalization with overlap
     ethr =  1.54E-13,  avg # of iterations =  3.8

     total cpu time spent up to now is      118.6 secs

     total energy              =    -922.12721290 Ry
     Harris-Foulkes estimate   =    -922.12721290 Ry
     estimated scf accuracy    <          9.5E-11 Ry

     iteration # 37     ecut=   100.00 Ry     beta= 0.70
     Davidson diagonalization with overlap
     ethr =  1.00E-13,  avg # of iterations =  4.0

     total cpu time spent up to now is      119.9 secs

     total energy              =    -922.12721290 Ry
     Harris-Foulkes estimate   =    -922.12721290 Ry
     estimated scf accuracy    <          4.0E-12 Ry

     iteration # 38     ecut=   100.00 Ry     beta= 0.70
     Davidson diagonalization with overlap
     ethr =  1.00E-13,  avg # of iterations =  1.0

     total cpu time spent up to now is      120.6 secs

     total energy              =    -922.12721290 Ry
     Harris-Foulkes estimate   =    -922.12721290 Ry
     estimated scf accuracy    <          1.5E-12 Ry

     iteration # 39     ecut=   100.00 Ry     beta= 0.70
     Davidson diagonalization with overlap
     ethr =  1.00E-13,  avg # of iterations =  1.0

     total cpu time spent up to now is      121.4 secs

     total energy              =    -922.12721290 Ry
     Harris-Foulkes estimate   =    -922.12721290 Ry
     estimated scf accuracy    <          1.3E-12 Ry

     iteration # 40     ecut=   100.00 Ry     beta= 0.70
     Davidson diagonalization with overlap
     ethr =  1.00E-13,  avg # of iterations =  1.0

     total cpu time spent up to now is      122.2 secs

     total energy              =    -922.12721290 Ry
     Harris-Foulkes estimate   =    -922.12721290 Ry
     estimated scf accuracy    <          2.4E-12 Ry

     iteration # 41     ecut=   100.00 Ry     beta= 0.70
     Davidson diagonalization with overlap
     ethr =  1.00E-13,  avg # of iterations =  1.0

     total cpu time spent up to now is      123.0 secs

     total energy              =    -922.12721290 Ry
     Harris-Foulkes estimate   =    -922.12721290 Ry
     estimated scf accuracy    <          5.0E-12 Ry

     iteration # 42     ecut=   100.00 Ry     beta= 0.70
     Davidson diagonalization with overlap
     ethr =  1.00E-13,  avg # of iterations =  1.0

     total cpu time spent up to now is      123.8 secs

     total energy              =    -922.12721290 Ry
     Harris-Foulkes estimate   =    -922.12721290 Ry
     estimated scf accuracy    <          4.6E-12 Ry

     iteration # 43     ecut=   100.00 Ry     beta= 0.70
     Davidson diagonalization with overlap
     ethr =  1.00E-13,  avg # of iterations =  1.0

     total cpu time spent up to now is      124.6 secs

     total energy              =    -922.12721290 Ry
     Harris-Foulkes estimate   =    -922.12721290 Ry
     estimated scf accuracy    <          7.0E-12 Ry

     iteration # 44     ecut=   100.00 Ry     beta= 0.70
     Davidson diagonalization with overlap
     ethr =  1.00E-13,  avg # of iterations =  1.0

     total cpu time spent up to now is      125.4 secs

     total energy              =    -922.12721290 Ry
     Harris-Foulkes estimate   =    -922.12721290 Ry
     estimated scf accuracy    <          4.1E-12 Ry

     iteration # 45     ecut=   100.00 Ry     beta= 0.70
     Davidson diagonalization with overlap
     ethr =  1.00E-13,  avg # of iterations =  1.0

     total cpu time spent up to now is      126.2 secs

     End of self-consistent calculation

          k = 0.0000 0.0000 0.0000 ( 20843 PWs)   bands (ev):

   -59.9841 -59.9822 -59.9734 -59.9714 -34.0212 -34.0188 -34.0120 -34.0065
   -33.9247 -33.8717 -33.8454 -33.8156 -33.8132 -33.7949 -33.7816 -33.7791
   -13.5474 -13.4242 -12.4615 -12.3324 -12.2476 -12.2085 -11.8317 -11.8269
   -11.6696 -11.6491  -0.4239  -0.4108  -0.3649  -0.2532  -0.0800   0.3543
     1.0515   1.0932   1.3298   1.3312   1.5634   1.6013   1.8507   1.8510
     1.8877   1.9859   2.0679   2.0724   2.1809   2.2618   2.3608   2.4924
     2.5071   2.8968   3.0139   3.0407   3.0980   3.3137   3.3475   3.4088

          k = 0.0000 0.2637 0.0000 ( 20855 PWs)   bands (ev):

   -59.9841 -59.9821 -59.9734 -59.9714 -34.0228 -34.0204 -34.0152 -34.0097
   -33.9243 -33.8713 -33.8454 -33.8155 -33.8130 -33.7949 -33.7816 -33.7791
   -13.4746 -13.3618 -12.3977 -12.3049 -12.2446 -12.1899 -11.8402 -11.8179
   -11.6414 -11.6167  -0.4698  -0.4565  -0.4023  -0.2973  -0.2470   0.0285
     0.2839   0.4638   0.5055   0.6526   1.1466   1.2902   1.3473   1.7902
     1.8446   2.0571   2.2091   2.3029   2.4660   2.5274   2.6694   2.7745
     3.0232   3.0304   3.0798   3.1976   3.2162   3.4932   3.5666   3.7059

          k = 0.3332 0.0000 0.0000 ( 20831 PWs)   bands (ev):

   -59.9797 -59.9777 -59.9743 -59.9724 -34.0153 -34.0129 -34.0097 -34.0055
   -33.9210 -33.8938 -33.8809 -33.8713 -33.8255 -33.8199 -33.8044 -33.7939
   -12.9713 -12.8302 -12.3588 -12.1925 -12.1830 -12.1592 -11.7708 -11.7601
   -11.7290 -11.6860  -0.9291  -0.8530  -0.1052  -0.0983   0.0220   0.3535
     0.4819   0.8639   0.8714   1.1673   1.2011   1.2366   1.6048   1.7406
     1.7503   1.9146   1.9909   2.0102   2.0920   2.1604   2.2482   2.3017
     2.3316   2.7370   3.0237   3.1039   3.1917   3.3787   3.5593   3.6261

          k = 0.3332 0.2637 0.0000 ( 20812 PWs)   bands (ev):

   -59.9796 -59.9777 -59.9743 -59.9723 -34.0173 -34.0148 -34.0124 -34.0081
   -33.9206 -33.8936 -33.8806 -33.8711 -33.8255 -33.8199 -33.8044 -33.7939
   -12.9079 -12.7828 -12.3171 -12.1894 -12.1671 -12.1433 -11.7577 -11.7387
   -11.6604 -11.6430  -0.9314  -0.8533  -0.1737  -0.1670  -0.0996   0.1514
     0.2543   0.3925   0.4380   0.6663   0.7227   0.9438   1.2814   1.3133
     1.4218   1.4606   1.5840   1.6805   1.8414   2.2828   2.5094   2.6990
     2.9739   2.9805   3.3630   3.5570   3.5846   3.7410   3.7873   3.7927

     highest occupied level (ev):     3.7927

!    total energy              =    -922.12721290 Ry
     Harris-Foulkes estimate   =    -922.12721290 Ry
     estimated scf accuracy    <          7.7E-14 Ry

     The total energy is the sum of the following terms:

     one-electron contribution =    -591.55344427 Ry
     hartree contribution      =     335.06813178 Ry
     xc contribution           =    -174.09060973 Ry
     ewald contribution        =    -491.42089556 Ry
     Dispersion Correction     =      -0.13039513 Ry

     convergence has been achieved in  45 iterations

     Forces acting on atoms (cartesian axes, Ry/au):

     atom    1 type  1   force =    -0.00000000    0.00092143   -0.00002433
     atom    2 type  1   force =     0.00000000   -0.00092143    0.00002433
     atom    3 type  1   force =     0.00000000   -0.00092143   -0.00002433
     atom    4 type  1   force =     0.00000000    0.00092143    0.00002433
     atom    5 type  2   force =     0.00000000   -0.00026644    0.00014718
     atom    6 type  2   force =     0.00000000    0.00026644   -0.00014718
     atom    7 type  2   force =     0.00000000    0.00026644    0.00014718
     atom    8 type  2   force =     0.00000000   -0.00026644   -0.00014718
     atom    9 type  2   force =     0.00000000   -0.00017120    0.00005943
     atom   10 type  2   force =     0.00000000    0.00017120   -0.00005943
     atom   11 type  2   force =    -0.00000000    0.00017120    0.00005943
     atom   12 type  2   force =    -0.00000000    0.00041350    0.00000000
     atom   13 type  2   force =     0.00000000   -0.00041350   -0.00000000
     atom   14 type  2   force =    -0.00000000   -0.00017120   -0.00005943

     Total force =     0.002060     Total SCF correction =     0.000001


     Computing stress (Cartesian axis) and pressure

          total   stress  (Ry/bohr**3)                   (kbar)     P=   -0.00
  -0.00000552   0.00000000   0.00000000         -0.81      0.00      0.00
   0.00000000   0.00001039   0.00000000          0.00      1.53      0.00
   0.00000000   0.00000000  -0.00000491          0.00      0.00     -0.72


     number of scf cycles    =   3
     number of bfgs steps    =   2

     enthalpy old            =    -922.1272105445 Ry
     enthalpy new            =    -922.1272128982 Ry

     CASE: enthalpy_new < enthalpy_old

     new trust radius        =       0.0017590843 bohr
     new conv_thr            =            1.0E-12 Ry

     new unit-cell volume =   1235.69350 a.u.^3 (   183.11088 Ang^3 )
     density =      3.29875 g/cm^3

CELL_PARAMETERS (alat=  6.68268247)
   1.000484138   0.000000000   0.000000000
   0.000000000   1.264587439   0.000000000
   0.000000000   0.000000000   3.272647388

ATOMIC_POSITIONS (crystal)
V        0.000000000   0.382849018   0.648065282
V        0.500000002   0.617150986   0.851934723
V        0.500000002   0.617150986   0.148065281
V        0.000000000   0.382849018   0.351934721
O        0.500000002   0.492309223   0.681314263
O        0.000000000   0.507690781   0.818685742
O        0.000000000   0.507690781   0.181314262
O        0.500000002   0.492309223   0.318685740
O        0.000000000   0.029070322   0.354181973
O        0.500000002   0.970929682   0.145818030
O        0.500000002   0.970929682   0.854181974
O        0.500000002   0.509248363   0.000000000
O        0.000000000   0.490751641   0.500000002
O        0.000000000   0.029070322   0.645818032



     Writing output data file v2o5.save/
     NEW-OLD atomic charge density approx. for the potential
     extrapolated charge  112.02423, renormalised to  112.00000

     total cpu time spent up to now is      129.3 secs

     Self-consistent Calculation

     iteration #  1     ecut=   100.00 Ry     beta= 0.70
     Davidson diagonalization with overlap
     ethr =  1.00E-06,  avg # of iterations =  2.0

     Threshold (ethr) on eigenvalues was too large:
     Diagonalizing with lowered threshold

     Davidson diagonalization with overlap
     ethr =  2.59E-08,  avg # of iterations =  4.0

     total cpu time spent up to now is      132.1 secs

     total energy              =    -922.12705142 Ry
     Harris-Foulkes estimate   =    -922.02212077 Ry
     estimated scf accuracy    <       0.00015966 Ry

     iteration #  2     ecut=   100.00 Ry     beta= 0.70
     Davidson diagonalization with overlap
     ethr =  1.43E-07,  avg # of iterations =  5.8

     total cpu time spent up to now is      134.1 secs

     total energy              =    -922.12690296 Ry
     Harris-Foulkes estimate   =    -922.12774954 Ry
     estimated scf accuracy    <       0.00437352 Ry

     iteration #  3     ecut=   100.00 Ry     beta= 0.70
     Davidson diagonalization with overlap
     ethr =  1.43E-07,  avg # of iterations =  5.0

     total cpu time spent up to now is      136.2 secs

     total energy              =    -922.12722118 Ry
     Harris-Foulkes estimate   =    -922.12723426 Ry
     estimated scf accuracy    <       0.00009900 Ry

     iteration #  4     ecut=   100.00 Ry     beta= 0.70
     Davidson diagonalization with overlap
     ethr =  8.84E-08,  avg # of iterations =  1.0

     total cpu time spent up to now is      137.0 secs

     total energy              =    -922.12721333 Ry
     Harris-Foulkes estimate   =    -922.12722284 Ry
     estimated scf accuracy    <       0.00007019 Ry

     iteration #  5     ecut=   100.00 Ry     beta= 0.70
     Davidson diagonalization with overlap
     ethr =  6.27E-08,  avg # of iterations =  2.0

     total cpu time spent up to now is      137.8 secs

     total energy              =    -922.12721480 Ry
     Harris-Foulkes estimate   =    -922.12721552 Ry
     estimated scf accuracy    <       0.00003446 Ry

     iteration #  6     ecut=   100.00 Ry     beta= 0.70
     Davidson diagonalization with overlap
     ethr =  3.08E-08,  avg # of iterations =  1.8

     total cpu time spent up to now is      138.6 secs

     total energy              =    -922.12721631 Ry
     Harris-Foulkes estimate   =    -922.12721588 Ry
     estimated scf accuracy    <       0.00002854 Ry

     iteration #  7     ecut=   100.00 Ry     beta= 0.70
     Davidson diagonalization with overlap
     ethr =  2.55E-08,  avg # of iterations =  1.0

     total cpu time spent up to now is      139.4 secs

     total energy              =    -922.12721529 Ry
     Harris-Foulkes estimate   =    -922.12721672 Ry
     estimated scf accuracy    <       0.00002546 Ry

     iteration #  8     ecut=   100.00 Ry     beta= 0.70
     Davidson diagonalization with overlap
     ethr =  2.27E-08,  avg # of iterations =  1.0

     total cpu time spent up to now is      140.3 secs

     total energy              =    -922.12721568 Ry
     Harris-Foulkes estimate   =    -922.12721587 Ry
     estimated scf accuracy    <       0.00001841 Ry

     iteration #  9     ecut=   100.00 Ry     beta= 0.70
     Davidson diagonalization with overlap
     ethr =  1.64E-08,  avg # of iterations =  3.2

     total cpu time spent up to now is      141.2 secs

     total energy              =    -922.12721417 Ry
     Harris-Foulkes estimate   =    -922.12721676 Ry
     estimated scf accuracy    <       0.00001303 Ry

     iteration # 10     ecut=   100.00 Ry     beta= 0.70
     Davidson diagonalization with overlap
     ethr =  1.16E-08,  avg # of iterations =  4.5

     total cpu time spent up to now is      142.6 secs

     total energy              =    -922.12721714 Ry
     Harris-Foulkes estimate   =    -922.12721718 Ry
     estimated scf accuracy    <       0.00000079 Ry

     iteration # 11     ecut=   100.00 Ry     beta= 0.70
     Davidson diagonalization with overlap
     ethr =  7.09E-10,  avg # of iterations =  4.5

     total cpu time spent up to now is      143.9 secs

     total energy              =    -922.12721728 Ry
     Harris-Foulkes estimate   =    -922.12721733 Ry
     estimated scf accuracy    <       0.00000104 Ry

     iteration # 12     ecut=   100.00 Ry     beta= 0.70
     Davidson diagonalization with overlap
     ethr =  7.09E-10,  avg # of iterations =  1.0

     total cpu time spent up to now is      144.7 secs

     total energy              =    -922.12721705 Ry
     Harris-Foulkes estimate   =    -922.12721729 Ry
     estimated scf accuracy    <       0.00000088 Ry

     iteration # 13     ecut=   100.00 Ry     beta= 0.70
     Davidson diagonalization with overlap
     ethr =  7.09E-10,  avg # of iterations =  4.0

     total cpu time spent up to now is      146.0 secs

     total energy              =    -922.12721716 Ry
     Harris-Foulkes estimate   =    -922.12721718 Ry
     estimated scf accuracy    <       0.00000014 Ry

     iteration # 14     ecut=   100.00 Ry     beta= 0.70
     Davidson diagonalization with overlap
     ethr =  1.28E-10,  avg # of iterations =  3.5

     total cpu time spent up to now is      147.0 secs

     total energy              =    -922.12721717 Ry
     Harris-Foulkes estimate   =    -922.12721718 Ry
     estimated scf accuracy    <       0.00000010 Ry

     iteration # 15     ecut=   100.00 Ry     beta= 0.70
     Davidson diagonalization with overlap
     ethr =  8.89E-11,  avg # of iterations =  1.5

     total cpu time spent up to now is      147.9 secs

     total energy              =    -922.12721715 Ry
     Harris-Foulkes estimate   =    -922.12721717 Ry
     estimated scf accuracy    <       0.00000009 Ry

     iteration # 16     ecut=   100.00 Ry     beta= 0.70
     Davidson diagonalization with overlap
     ethr =  8.00E-11,  avg # of iterations =  4.2

     total cpu time spent up to now is      149.5 secs

     total energy              =    -922.12721716 Ry
     Harris-Foulkes estimate   =    -922.12721719 Ry
     estimated scf accuracy    <       0.00000010 Ry

     iteration # 17     ecut=   100.00 Ry     beta= 0.70
     Davidson diagonalization with overlap
     ethr =  8.00E-11,  avg # of iterations =  3.8

     total cpu time spent up to now is      150.5 secs

     total energy              =    -922.12721716 Ry
     Harris-Foulkes estimate   =    -922.12721717 Ry
     estimated scf accuracy    <       0.00000002 Ry

     iteration # 18     ecut=   100.00 Ry     beta= 0.70
     Davidson diagonalization with overlap
     ethr =  1.46E-11,  avg # of iterations =  4.2

     total cpu time spent up to now is      152.2 secs

     total energy              =    -922.12721717 Ry
     Harris-Foulkes estimate   =    -922.12721717 Ry
     estimated scf accuracy    <       0.00000006 Ry

     iteration # 19     ecut=   100.00 Ry     beta= 0.70
     Davidson diagonalization with overlap
     ethr =  1.46E-11,  avg # of iterations =  4.0

     total cpu time spent up to now is      153.4 secs

     total energy              =    -922.12721717 Ry
     Harris-Foulkes estimate   =    -922.12721717 Ry
     estimated scf accuracy    <       0.00000002 Ry

     iteration # 20     ecut=   100.00 Ry     beta= 0.70
     Davidson diagonalization with overlap
     ethr =  1.46E-11,  avg # of iterations =  1.0

     total cpu time spent up to now is      154.2 secs

     total energy              =    -922.12721717 Ry
     Harris-Foulkes estimate   =    -922.12721717 Ry
     estimated scf accuracy    <       0.00000002 Ry

     iteration # 21     ecut=   100.00 Ry     beta= 0.70
     Davidson diagonalization with overlap
     ethr =  1.35E-11,  avg # of iterations =  3.2

     total cpu time spent up to now is      155.2 secs

     total energy              =    -922.12721717 Ry
     Harris-Foulkes estimate   =    -922.12721717 Ry
     estimated scf accuracy    <          9.0E-10 Ry

     iteration # 22     ecut=   100.00 Ry     beta= 0.70
     Davidson diagonalization with overlap
     ethr =  8.06E-13,  avg # of iterations =  5.0

     total cpu time spent up to now is      156.8 secs

     total energy              =    -922.12721717 Ry
     Harris-Foulkes estimate   =    -922.12721717 Ry
     estimated scf accuracy    <          1.6E-10 Ry

     iteration # 23     ecut=   100.00 Ry     beta= 0.70
     Davidson diagonalization with overlap
     ethr =  1.43E-13,  avg # of iterations =  4.0

     total cpu time spent up to now is      157.9 secs

     total energy              =    -922.12721717 Ry
     Harris-Foulkes estimate   =    -922.12721717 Ry
     estimated scf accuracy    <          7.9E-12 Ry

     iteration # 24     ecut=   100.00 Ry     beta= 0.70
     Davidson diagonalization with overlap
     ethr =  1.00E-13,  avg # of iterations =  4.0

     total cpu time spent up to now is      159.1 secs

     total energy              =    -922.12721717 Ry
     Harris-Foulkes estimate   =    -922.12721717 Ry
     estimated scf accuracy    <          5.0E-11 Ry

     iteration # 25     ecut=   100.00 Ry     beta= 0.70
     Davidson diagonalization with overlap
     ethr =  1.00E-13,  avg # of iterations =  1.0

     total cpu time spent up to now is      159.9 secs

     total energy              =    -922.12721717 Ry
     Harris-Foulkes estimate   =    -922.12721717 Ry
     estimated scf accuracy    <          3.5E-11 Ry

     iteration # 26     ecut=   100.00 Ry     beta= 0.70
     Davidson diagonalization with overlap
     ethr =  1.00E-13,  avg # of iterations =  2.8

     total cpu time spent up to now is      160.8 secs

     total energy              =    -922.12721717 Ry
     Harris-Foulkes estimate   =    -922.12721717 Ry
     estimated scf accuracy    <          3.7E-12 Ry

     iteration # 27     ecut=   100.00 Ry     beta= 0.70
     Davidson diagonalization with overlap
     ethr =  1.00E-13,  avg # of iterations =  1.0

     total cpu time spent up to now is      161.6 secs

     End of self-consistent calculation

          k = 0.0000 0.0000 0.0000 ( 20843 PWs)   bands (ev):

   -59.9870 -59.9850 -59.9762 -59.9743 -34.0232 -34.0208 -34.0141 -34.0086
   -33.9279 -33.8748 -33.8486 -33.8186 -33.8162 -33.7980 -33.7846 -33.7821
   -13.5507 -13.4275 -12.4647 -12.3353 -12.2514 -12.2125 -11.8331 -11.8287
   -11.6710 -11.6508  -0.4275  -0.4144  -0.3692  -0.2569  -0.0841   0.3511
     1.0482   1.0914   1.3271   1.3282   1.5618   1.5996   1.8489   1.8491
     1.8858   1.9843   2.0651   2.0716   2.1763   2.2614   2.3590   2.4907
     2.5050   2.8932   3.0124   3.0392   3.0951   3.3121   3.3446   3.4061

          k = 0.0000 0.2636 0.0000 ( 20855 PWs)   bands (ev):

   -59.9869 -59.9850 -59.9762 -59.9743 -34.0248 -34.0224 -34.0173 -34.0117
   -33.9275 -33.8744 -33.8485 -33.8185 -33.8160 -33.7980 -33.7846 -33.7821
   -13.4781 -13.3653 -12.4012 -12.3080 -12.2483 -12.1940 -11.8417 -11.8193
   -11.6429 -11.6181  -0.4732  -0.4598  -0.4062  -0.3009  -0.2504   0.0274
     0.2813   0.4617   0.5043   0.6509   1.1456   1.2894   1.3464   1.7887
     1.8434   2.0536   2.2043   2.3001   2.4632   2.5265   2.6676   2.7733
     3.0211   3.0283   3.0763   3.1944   3.2133   3.4904   3.5634   3.7033

          k = 0.3332 0.0000 0.0000 ( 20831 PWs)   bands (ev):

   -59.9825 -59.9806 -59.9771 -59.9752 -34.0173 -34.0149 -34.0117 -34.0075
   -33.9242 -33.8969 -33.8840 -33.8744 -33.8285 -33.8230 -33.8075 -33.7970
   -12.9746 -12.8333 -12.3627 -12.1957 -12.1861 -12.1631 -11.7722 -11.7618
   -11.7301 -11.6877  -0.9328  -0.8566  -0.1095  -0.1017   0.0177   0.3508
     0.4792   0.8612   0.8680   1.1648   1.1987   1.2344   1.6019   1.7387
     1.7487   1.9123   1.9890   2.0092   2.0899   2.1590   2.2460   2.2982
     2.3304   2.7352   3.0215   3.1026   3.1897   3.3772   3.5563   3.6222

          k = 0.3332 0.2636 0.0000 ( 20812 PWs)   bands (ev):

   -59.9825 -59.9805 -59.9771 -59.9752 -34.0193 -34.0168 -34.0144 -34.0101
   -33.9238 -33.8967 -33.8837 -33.8741 -33.8285 -33.8230 -33.8075 -33.7970
   -12.9114 -12.7862 -12.3212 -12.1925 -12.1703 -12.1474 -11.7592 -11.7401
   -11.6619 -11.6444  -0.9350  -0.8568  -0.1766  -0.1707  -0.1031   0.1499
     0.2518   0.3902   0.4361   0.6646   0.7212   0.9412   1.2806   1.3105
     1.4197   1.4589   1.5827   1.6781   1.8399   2.2816   2.5061   2.6976
     2.9712   2.9783   3.3607   3.5546   3.5815   3.7383   3.7836   3.7899

     highest occupied level (ev):     3.7899

!    total energy              =    -922.12721717 Ry
     Harris-Foulkes estimate   =    -922.12721717 Ry
     estimated scf accuracy    <          9.7E-13 Ry

     The total energy is the sum of the following terms:

     one-electron contribution =    -591.71235981 Ry
     hartree contribution      =     335.13640514 Ry
     xc contribution           =    -174.08970463 Ry
     ewald contribution        =    -491.33119461 Ry
     Dispersion Correction     =      -0.13036325 Ry

     convergence has been achieved in  27 iterations

     Forces acting on atoms (cartesian axes, Ry/au):

     atom    1 type  1   force =     0.00000000    0.00030347    0.00009688
     atom    2 type  1   force =     0.00000000   -0.00030347   -0.00009688
     atom    3 type  1   force =     0.00000000   -0.00030347    0.00009688
     atom    4 type  1   force =     0.00000000    0.00030347   -0.00009688
     atom    5 type  2   force =    -0.00000000   -0.00022975    0.00009177
     atom    6 type  2   force =     0.00000000    0.00022975   -0.00009177
     atom    7 type  2   force =     0.00000000    0.00022975    0.00009177
     atom    8 type  2   force =     0.00000000   -0.00022975   -0.00009177
     atom    9 type  2   force =     0.00000000    0.00030632    0.00005138
     atom   10 type  2   force =    -0.00000000   -0.00030632   -0.00005138
     atom   11 type  2   force =     0.00000000   -0.00030632    0.00005138
     atom   12 type  2   force =     0.00000000    0.00026687    0.00000000
     atom   13 type  2   force =     0.00000000   -0.00026687    0.00000000
     atom   14 type  2   force =     0.00000000    0.00030632   -0.00005138

     Total force =     0.001086     Total SCF correction =     0.000002


     Computing stress (Cartesian axis) and pressure

          total   stress  (Ry/bohr**3)                   (kbar)     P=   -0.17
  -0.00000518   0.00000000   0.00000000         -0.76      0.00      0.00
   0.00000000   0.00000515   0.00000000          0.00      0.76      0.00
   0.00000000   0.00000000  -0.00000336          0.00      0.00     -0.49


     number of scf cycles    =   4
     number of bfgs steps    =   3

     enthalpy old            =    -922.1272128982 Ry
     enthalpy new            =    -922.1272171670 Ry

     CASE: enthalpy_new < enthalpy_old

     new trust radius        =       0.0026382517 bohr
     new conv_thr            =            1.0E-12 Ry

     new unit-cell volume =   1236.10815 a.u.^3 (   183.17233 Ang^3 )
     density =      3.29765 g/cm^3

CELL_PARAMETERS (alat=  6.68268247)
   1.000437943   0.000000000   0.000000000
   0.000000000   1.265061986   0.000000000
   0.000000000   0.000000000   3.272668620

ATOMIC_POSITIONS (crystal)
V        0.000000000   0.382877287   0.648063827
V        0.500000002   0.617122717   0.851936178
V        0.500000002   0.617122717   0.148063826
V        0.000000000   0.382877287   0.351936176
O        0.500000002   0.492248413   0.681328820
O        0.000000000   0.507751591   0.818671185
O        0.000000000   0.507751591   0.181328819
O        0.500000002   0.492248413   0.318671183
O        0.000000000   0.029203146   0.354189449
O        0.500000002   0.970796858   0.145810554
O        0.500000002   0.970796858   0.854189450
O        0.500000002   0.509333928   0.000000000
O        0.000000000   0.490666076   0.500000002
O        0.000000000   0.029203146   0.645810556



     Writing output data file v2o5.save/
     NEW-OLD atomic charge density approx. for the potential
     extrapolated charge  112.03757, renormalised to  112.00000

     total cpu time spent up to now is      164.7 secs

     Self-consistent Calculation

     iteration #  1     ecut=   100.00 Ry     beta= 0.70
     Davidson diagonalization with overlap
     ethr =  1.00E-06,  avg # of iterations =  3.0

     Threshold (ethr) on eigenvalues was too large:
     Diagonalizing with lowered threshold

     Davidson diagonalization with overlap
     ethr =  5.60E-08,  avg # of iterations =  4.0

     total cpu time spent up to now is      167.5 secs

     total energy              =    -922.12684032 Ry
     Harris-Foulkes estimate   =    -921.96419271 Ry
     estimated scf accuracy    <       0.00036372 Ry

     iteration #  2     ecut=   100.00 Ry     beta= 0.70
     Davidson diagonalization with overlap
     ethr =  3.25E-07,  avg # of iterations =  5.8

     total cpu time spent up to now is      169.5 secs

     total energy              =    -922.12650010 Ry
     Harris-Foulkes estimate   =    -922.12845068 Ry
     estimated scf accuracy    <       0.01014626 Ry

     iteration #  3     ecut=   100.00 Ry     beta= 0.70
     Davidson diagonalization with overlap
     ethr =  3.25E-07,  avg # of iterations =  5.0

     total cpu time spent up to now is      171.6 secs

     total energy              =    -922.12723205 Ry
     Harris-Foulkes estimate   =    -922.12726266 Ry
[...]

     iteration #  2     ecut=   100.00 Ry     beta= 0.70
     Davidson diagonalization with overlap
     ethr =  6.83E-03,  avg # of iterations =  6.2

     total cpu time spent up to now is     1006.9 secs

     total energy              =    -908.09086587 Ry
     Harris-Foulkes estimate   =    -938.34966232 Ry
     estimated scf accuracy    <     136.13037696 Ry

     iteration #  3     ecut=   100.00 Ry     beta= 0.70
     Davidson diagonalization with overlap
     ethr =  6.83E-03,  avg # of iterations =  5.8

     total cpu time spent up to now is     1008.2 secs

     total energy              =    -921.91093783 Ry
     Harris-Foulkes estimate   =    -922.67363105 Ry
     estimated scf accuracy    <       2.57483767 Ry

     iteration #  4     ecut=   100.00 Ry     beta= 0.70
     Davidson diagonalization with overlap
     ethr =  2.30E-03,  avg # of iterations =  3.8

     total cpu time spent up to now is     1009.0 secs

     total energy              =    -922.06711160 Ry
     Harris-Foulkes estimate   =    -922.20140177 Ry
     estimated scf accuracy    <       0.85728584 Ry

     iteration #  5     ecut=   100.00 Ry     beta= 0.70
     Davidson diagonalization with overlap
     ethr =  7.65E-04,  avg # of iterations =  4.0

     total cpu time spent up to now is     1009.6 secs

     total energy              =    -922.00756316 Ry
     Harris-Foulkes estimate   =    -922.13050946 Ry
     estimated scf accuracy    <       0.42879595 Ry

     iteration #  6     ecut=   100.00 Ry     beta= 0.70
     Davidson diagonalization with overlap
     ethr =  3.83E-04,  avg # of iterations =  4.0

     total cpu time spent up to now is     1010.5 secs

     total energy              =    -922.13174488 Ry
     Harris-Foulkes estimate   =    -922.14671115 Ry
     estimated scf accuracy    <       0.15958457 Ry

     iteration #  7     ecut=   100.00 Ry     beta= 0.70
     Davidson diagonalization with overlap
     ethr =  1.42E-04,  avg # of iterations =  1.8

     total cpu time spent up to now is     1011.1 secs

     total energy              =    -922.10847221 Ry
     Harris-Foulkes estimate   =    -922.13413448 Ry
     estimated scf accuracy    <       0.12179339 Ry

     iteration #  8     ecut=   100.00 Ry     beta= 0.70
     Davidson diagonalization with overlap
     ethr =  1.09E-04,  avg # of iterations =  3.5

     total cpu time spent up to now is     1011.8 secs

     total energy              =    -922.12569275 Ry
     Harris-Foulkes estimate   =    -922.12636621 Ry
     estimated scf accuracy    <       0.00243374 Ry

     iteration #  9     ecut=   100.00 Ry     beta= 0.70
     Davidson diagonalization with overlap
     ethr =  2.17E-06,  avg # of iterations =  5.8

     total cpu time spent up to now is     1012.9 secs

     total energy              =    -922.12721514 Ry
     Harris-Foulkes estimate   =    -922.12754348 Ry
     estimated scf accuracy    <       0.00253733 Ry

     iteration # 10     ecut=   100.00 Ry     beta= 0.70
     Davidson diagonalization with overlap
     ethr =  2.17E-06,  avg # of iterations =  2.2

     total cpu time spent up to now is     1013.5 secs

     total energy              =    -922.12691698 Ry
     Harris-Foulkes estimate   =    -922.12728130 Ry
     estimated scf accuracy    <       0.00159911 Ry

     iteration # 11     ecut=   100.00 Ry     beta= 0.70
     Davidson diagonalization with overlap
     ethr =  1.43E-06,  avg # of iterations =  4.0

     total cpu time spent up to now is     1014.3 secs

     total energy              =    -922.12721521 Ry
     Harris-Foulkes estimate   =    -922.12726510 Ry
     estimated scf accuracy    <       0.00017379 Ry

     iteration # 12     ecut=   100.00 Ry     beta= 0.70
     Davidson diagonalization with overlap
     ethr =  1.55E-07,  avg # of iterations =  4.5

     total cpu time spent up to now is     1015.1 secs

     total energy              =    -922.12723863 Ry
     Harris-Foulkes estimate   =    -922.12724039 Ry
     estimated scf accuracy    <       0.00003870 Ry

     iteration # 13     ecut=   100.00 Ry     beta= 0.70
     Davidson diagonalization with overlap
     ethr =  3.45E-08,  avg # of iterations =  4.2

     total cpu time spent up to now is     1015.9 secs

     total energy              =    -922.12724225 Ry
     Harris-Foulkes estimate   =    -922.12724568 Ry
     estimated scf accuracy    <       0.00002811 Ry

     iteration # 14     ecut=   100.00 Ry     beta= 0.70
     Davidson diagonalization with overlap
     ethr =  2.51E-08,  avg # of iterations =  1.2

     total cpu time spent up to now is     1016.4 secs

     total energy              =    -922.12724019 Ry
     Harris-Foulkes estimate   =    -922.12724271 Ry
     estimated scf accuracy    <       0.00001794 Ry

     iteration # 15     ecut=   100.00 Ry     beta= 0.70
     Davidson diagonalization with overlap
     ethr =  1.60E-08,  avg # of iterations =  3.8

     total cpu time spent up to now is     1017.1 secs

     total energy              =    -922.12724179 Ry
     Harris-Foulkes estimate   =    -922.12724206 Ry
     estimated scf accuracy    <       0.00000183 Ry

     iteration # 16     ecut=   100.00 Ry     beta= 0.70
     Davidson diagonalization with overlap
     ethr =  1.64E-09,  avg # of iterations =  5.2

     total cpu time spent up to now is     1018.1 secs

     total energy              =    -922.12724288 Ry
     Harris-Foulkes estimate   =    -922.12724295 Ry
     estimated scf accuracy    <       0.00000137 Ry

     iteration # 17     ecut=   100.00 Ry     beta= 0.70
     Davidson diagonalization with overlap
     ethr =  1.22E-09,  avg # of iterations =  1.0

     total cpu time spent up to now is     1018.6 secs

     total energy              =    -922.12724267 Ry
     Harris-Foulkes estimate   =    -922.12724289 Ry
     estimated scf accuracy    <       0.00000119 Ry

     iteration # 18     ecut=   100.00 Ry     beta= 0.70
     Davidson diagonalization with overlap
     ethr =  1.06E-09,  avg # of iterations =  3.8

     total cpu time spent up to now is     1019.3 secs

     total energy              =    -922.12724278 Ry
     Harris-Foulkes estimate   =    -922.12724279 Ry
     estimated scf accuracy    <       0.00000016 Ry

     iteration # 19     ecut=   100.00 Ry     beta= 0.70
     Davidson diagonalization with overlap
     ethr =  1.44E-10,  avg # of iterations =  4.0

     total cpu time spent up to now is     1020.0 secs

     total energy              =    -922.12724279 Ry
     Harris-Foulkes estimate   =    -922.12724279 Ry
     estimated scf accuracy    <       0.00000016 Ry

     iteration # 20     ecut=   100.00 Ry     beta= 0.70
     Davidson diagonalization with overlap
     ethr =  1.44E-10,  avg # of iterations =  1.0

     total cpu time spent up to now is     1020.5 secs

     total energy              =    -922.12724277 Ry
     Harris-Foulkes estimate   =    -922.12724279 Ry
     estimated scf accuracy    <       0.00000015 Ry

     iteration # 21     ecut=   100.00 Ry     beta= 0.70
     Davidson diagonalization with overlap
     ethr =  1.30E-10,  avg # of iterations =  2.0

     total cpu time spent up to now is     1021.1 secs

     total energy              =    -922.12724277 Ry
     Harris-Foulkes estimate   =    -922.12724278 Ry
     estimated scf accuracy    <       0.00000010 Ry

     iteration # 22     ecut=   100.00 Ry     beta= 0.70
     Davidson diagonalization with overlap
     ethr =  8.62E-11,  avg # of iterations =  1.0

     total cpu time spent up to now is     1021.6 secs

     total energy              =    -922.12724275 Ry
     Harris-Foulkes estimate   =    -922.12724277 Ry
     estimated scf accuracy    <       0.00000008 Ry

     iteration # 23     ecut=   100.00 Ry     beta= 0.70
     Davidson diagonalization with overlap
     ethr =  7.44E-11,  avg # of iterations =  4.0

     total cpu time spent up to now is     1022.5 secs

     total energy              =    -922.12724277 Ry
     Harris-Foulkes estimate   =    -922.12724277 Ry
     estimated scf accuracy    <       0.00000002 Ry

     iteration # 24     ecut=   100.00 Ry     beta= 0.70
     Davidson diagonalization with overlap
     ethr =  1.76E-11,  avg # of iterations =  2.5

     total cpu time spent up to now is     1023.0 secs

     total energy              =    -922.12724277 Ry
     Harris-Foulkes estimate   =    -922.12724277 Ry
     estimated scf accuracy    <       0.00000001 Ry

     iteration # 25     ecut=   100.00 Ry     beta= 0.70
     Davidson diagonalization with overlap
     ethr =  1.12E-11,  avg # of iterations =  4.0

     total cpu time spent up to now is     1023.8 secs

     total energy              =    -922.12724277 Ry
     Harris-Foulkes estimate   =    -922.12724277 Ry
     estimated scf accuracy    <          3.0E-09 Ry

     iteration # 26     ecut=   100.00 Ry     beta= 0.70
     Davidson diagonalization with overlap
     ethr =  2.64E-12,  avg # of iterations =  4.2

     total cpu time spent up to now is     1024.6 secs

     total energy              =    -922.12724277 Ry
     Harris-Foulkes estimate   =    -922.12724277 Ry
     estimated scf accuracy    <          1.4E-09 Ry

     iteration # 27     ecut=   100.00 Ry     beta= 0.70
     Davidson diagonalization with overlap
     ethr =  1.28E-12,  avg # of iterations =  2.0

     total cpu time spent up to now is     1025.2 secs

     total energy              =    -922.12724277 Ry
     Harris-Foulkes estimate   =    -922.12724277 Ry
     estimated scf accuracy    <          1.5E-09 Ry

     iteration # 28     ecut=   100.00 Ry     beta= 0.70
     Davidson diagonalization with overlap
     ethr =  1.28E-12,  avg # of iterations =  2.8

     total cpu time spent up to now is     1025.7 secs

     total energy              =    -922.12724277 Ry
     Harris-Foulkes estimate   =    -922.12724277 Ry
     estimated scf accuracy    <          9.3E-10 Ry

     iteration # 29     ecut=   100.00 Ry     beta= 0.70
     Davidson diagonalization with overlap
     ethr =  8.32E-13,  avg # of iterations =  3.2

     total cpu time spent up to now is     1026.3 secs

     total energy              =    -922.12724277 Ry
     Harris-Foulkes estimate   =    -922.12724277 Ry
     estimated scf accuracy    <          5.1E-10 Ry

     iteration # 30     ecut=   100.00 Ry     beta= 0.70
     Davidson diagonalization with overlap
     ethr =  4.55E-13,  avg # of iterations =  4.0

     total cpu time spent up to now is     1027.1 secs

     total energy              =    -922.12724277 Ry
     Harris-Foulkes estimate   =    -922.12724277 Ry
     estimated scf accuracy    <          3.7E-11 Ry

     iteration # 31     ecut=   100.00 Ry     beta= 0.70
     Davidson diagonalization with overlap
     ethr =  1.00E-13,  avg # of iterations =  2.8

     total cpu time spent up to now is     1027.7 secs

     total energy              =    -922.12724277 Ry
     Harris-Foulkes estimate   =    -922.12724277 Ry
     estimated scf accuracy    <          2.5E-11 Ry

     iteration # 32     ecut=   100.00 Ry     beta= 0.70
     Davidson diagonalization with overlap
     ethr =  1.00E-13,  avg # of iterations =  1.0

     total cpu time spent up to now is     1028.2 secs

     total energy              =    -922.12724277 Ry
     Harris-Foulkes estimate   =    -922.12724277 Ry
     estimated scf accuracy    <          2.2E-11 Ry

     iteration # 33     ecut=   100.00 Ry     beta= 0.70
     Davidson diagonalization with overlap
     ethr =  1.00E-13,  avg # of iterations =  3.8

     total cpu time spent up to now is     1028.8 secs

     total energy              =    -922.12724277 Ry
     Harris-Foulkes estimate   =    -922.12724277 Ry
     estimated scf accuracy    <          2.8E-11 Ry

     iteration # 34     ecut=   100.00 Ry     beta= 0.70
     Davidson diagonalization with overlap
     ethr =  1.00E-13,  avg # of iterations =  4.0

     total cpu time spent up to now is     1029.6 secs

     total energy              =    -922.12724277 Ry
     Harris-Foulkes estimate   =    -922.12724277 Ry
     estimated scf accuracy    <          1.7E-10 Ry

     iteration # 35     ecut=   100.00 Ry     beta= 0.70
     Davidson diagonalization with overlap
     ethr =  1.00E-13,  avg # of iterations =  4.0

     total cpu time spent up to now is     1030.5 secs

     total energy              =    -922.12724277 Ry
     Harris-Foulkes estimate   =    -922.12724277 Ry
     estimated scf accuracy    <          8.7E-12 Ry

     iteration # 36     ecut=   100.00 Ry     beta= 0.70
     Davidson diagonalization with overlap
     ethr =  1.00E-13,  avg # of iterations =  1.0

     total cpu time spent up to now is     1031.0 secs

     total energy              =    -922.12724277 Ry
     Harris-Foulkes estimate   =    -922.12724277 Ry
     estimated scf accuracy    <          3.5E-12 Ry

     iteration # 37     ecut=   100.00 Ry     beta= 0.70
     Davidson diagonalization with overlap
     ethr =  1.00E-13,  avg # of iterations =  1.0

     total cpu time spent up to now is     1031.5 secs

     End of self-consistent calculation

          k = 0.0000 0.0000 0.0000 ( 20951 PWs)   bands (ev):

   -60.0212 -60.0192 -60.0104 -60.0084 -34.0579 -34.0556 -34.0487 -34.0431
   -33.9626 -33.9093 -33.8832 -33.8535 -33.8511 -33.8324 -33.8194 -33.8169
   -13.5894 -13.4666 -12.5005 -12.3732 -12.2898 -12.2497 -11.8643 -11.8611
   -11.7024 -11.6839  -0.4709  -0.4579  -0.4055  -0.2994  -0.1204   0.3071
     1.0003   1.0546   1.2852   1.2902   1.5200   1.5587   1.8043   1.8146
     1.8385   1.9443   2.0278   2.0400   2.1404   2.2305   2.3283   2.4488
     2.4762   2.8483   2.9813   3.0083   3.0595   3.2789   3.3038   3.3714

          k = 0.0000 0.2626 0.0000 ( 20993 PWs)   bands (ev):

   -60.0211 -60.0192 -60.0104 -60.0084 -34.0595 -34.0571 -34.0517 -34.0461
   -33.9623 -33.9089 -33.8832 -33.8534 -33.8509 -33.8324 -33.8194 -33.8169
   -13.5195 -13.4069 -12.4398 -12.3476 -12.2868 -12.2316 -11.8740 -11.8513
   -11.6769 -11.6514  -0.5148  -0.5015  -0.4408  -0.3419  -0.2849  -0.0000
     0.2460   0.4304   0.4792   0.6220   1.1236   1.2568   1.3143   1.7588
     1.8134   2.0175   2.1678   2.2629   2.4241   2.4913   2.6303   2.7386
     2.9865   2.9926   3.0309   3.1531   3.1737   3.4476   3.5208   3.6578

          k = 0.3332 0.0000 0.0000 ( 20943 PWs)   bands (ev):

   -60.0167 -60.0148 -60.0113 -60.0094 -34.0520 -34.0496 -34.0463 -34.0421
   -33.9590 -33.9318 -33.9188 -33.9093 -33.8633 -33.8578 -33.8421 -33.8314
   -13.0126 -12.8724 -12.3986 -12.2355 -12.2252 -12.2007 -11.8030 -11.7940
   -11.7595 -11.7197  -0.9736  -0.8968  -0.1446  -0.1423  -0.0187   0.3125
     0.4401   0.8182   0.8238   1.1226   1.1592   1.1969   1.5630   1.7000
     1.7135   1.8703   1.9398   1.9778   2.0430   2.1305   2.1982   2.2568
     2.2990   2.6951   2.9879   3.0729   3.1572   3.3465   3.5229   3.5845

          k = 0.3332 0.2626 0.0000 ( 20903 PWs)   bands (ev):

   -60.0167 -60.0147 -60.0113 -60.0094 -34.0538 -34.0514 -34.0489 -34.0446
   -33.9587 -33.9316 -33.9184 -33.9091 -33.8633 -33.8578 -33.8421 -33.8315
   -12.9520 -12.8273 -12.3590 -12.2325 -12.2099 -12.1853 -11.7921 -11.7727
   -11.6954 -11.6770  -0.9757  -0.8971  -0.2145  -0.2041  -0.1370   0.1210
     0.2180   0.3551   0.4076   0.6364   0.6958   0.9013   1.2585   1.2763
     1.3848   1.4296   1.5537   1.6468   1.8052   2.2450   2.4672   2.6624
     2.9282   2.9419   3.3150   3.5113   3.5381   3.6943   3.7428   3.7491

     highest occupied level (ev):     3.7491

!    total energy              =    -922.12724277 Ry
     Harris-Foulkes estimate   =    -922.12724277 Ry
     estimated scf accuracy    <          8.3E-13 Ry

     The total energy is the sum of the following terms:

     one-electron contribution =    -594.20566411 Ry
     hartree contribution      =     336.23492917 Ry
     xc contribution           =    -174.08961518 Ry
     ewald contribution        =    -489.93696428 Ry
     Dispersion Correction     =      -0.12992837 Ry

     convergence has been achieved in  37 iterations

     Forces acting on atoms (cartesian axes, Ry/au):

     atom    1 type  1   force =     0.00000000   -0.00001162   -0.00000270
     atom    2 type  1   force =     0.00000000    0.00001162    0.00000270
     atom    3 type  1   force =     0.00000000    0.00001162   -0.00000270
     atom    4 type  1   force =     0.00000000   -0.00001162    0.00000270
     atom    5 type  2   force =     0.00000000    0.00000355   -0.00000962
     atom    6 type  2   force =     0.00000000   -0.00000355    0.00000962
     atom    7 type  2   force =     0.00000000   -0.00000355   -0.00000962
     atom    8 type  2   force =     0.00000000    0.00000355    0.00000962
     atom    9 type  2   force =     0.00000000    0.00001840   -0.00000708
     atom   10 type  2   force =    -0.00000000   -0.00001840    0.00000708
     atom   11 type  2   force =    -0.00000000   -0.00001840   -0.00000708
     atom   12 type  2   force =    -0.00000000    0.00000377    0.00000000
     atom   13 type  2   force =     0.00000000   -0.00000377   -0.00000000
     atom   14 type  2   force =     0.00000000    0.00001840    0.00000708

     Total force =     0.000051     Total SCF correction =     0.000003


     Computing stress (Cartesian axis) and pressure

          total   stress  (Ry/bohr**3)                   (kbar)     P=   -0.01
  -0.00000002   0.00000000   0.00000000         -0.00      0.00      0.00
   0.00000000  -0.00000014   0.00000000          0.00     -0.02      0.00
   0.00000000   0.00000000   0.00000004          0.00      0.00      0.01


     Writing output data file v2o5.save/

     init_run     :      1.67s CPU      1.71s WALL (       2 calls)
     electrons    :    938.32s CPU    952.49s WALL (      28 calls)
     update_pot   :     21.71s CPU     21.77s WALL (      26 calls)
     forces       :     21.13s CPU     21.32s WALL (      28 calls)
     stress       :     34.23s CPU     34.32s WALL (      28 calls)

     Called by init_run:
     wfcinit      :      0.70s CPU      0.73s WALL (       2 calls)
     potinit      :      0.31s CPU      0.31s WALL (       2 calls)
     hinit0       :      0.59s CPU      0.60s WALL (       2 calls)

     Called by electrons:
     c_bands      :    873.26s CPU    885.16s WALL (     885 calls)
     sum_band     :     51.71s CPU     52.64s WALL (     885 calls)
     v_of_rho     :      7.96s CPU      8.68s WALL (     892 calls)
     mix_rho      :      3.58s CPU      3.74s WALL (     885 calls)

     Called by c_bands:
     init_us_2    :     11.37s CPU     11.89s WALL (    7312 calls)
     cegterg      :    833.89s CPU    844.64s WALL (    3540 calls)

     Called by sum_band:

     Called by *egterg:
     h_psi        :    480.39s CPU    486.21s WALL (   13451 calls)
     g_psi        :      1.49s CPU      1.50s WALL (    9903 calls)
     cdiaghg      :    107.47s CPU    110.14s WALL (   13255 calls)

     Called by h_psi:
     h_psi:pot    :    478.67s CPU    484.40s WALL (   13451 calls)
     h_psi:calbec :    149.85s CPU    151.91s WALL (   13451 calls)
     vloc_psi     :    211.94s CPU    215.37s WALL (   13451 calls)
     add_vuspsi   :    116.79s CPU    117.05s WALL (   13451 calls)

     General routines
     calbec       :    158.66s CPU    160.87s WALL (   14011 calls)
     fft          :      7.07s CPU      7.64s WALL (    9639 calls)
     ffts         :      0.67s CPU      0.70s WALL (     885 calls)
     fftw         :    229.84s CPU    233.51s WALL ( 1203348 calls)

     Parallel routines
     fft_scatt_xy :     19.67s CPU     19.97s WALL ( 1213872 calls)
     fft_scatt_yz :    112.03s CPU    114.30s WALL ( 1213872 calls)

     PWSCF        :  16m57.88s CPU  17m12.70s WALL


   This run was terminated on:  22:32:17  17May2024            

=------------------------------------------------------------------------------=
   JOB DONE.
=------------------------------------------------------------------------------=
