
     Program PWSCF v.6.4.1 starts on 10Mar2024 at 19:23:33 

     This program is part of the open-source Quantum ESPRESSO suite
     for quantum simulation of materials; please cite
         "P. Giannozzi et al., J. Phys.:Condens. Matter 21 395502 (2009);
         "P. Giannozzi et al., J. Phys.:Condens. Matter 29 465901 (2017);
          URL http://www.quantum-espresso.org", 
     in publications or presentations arising from this work. More details at
     http://www.quantum-espresso.org/quote

     Parallel version (MPI), running on    32 processors

     MPI processes distributed on     1 nodes
     R & G space division:  proc/nbgrp/npool/nimage =      32
     Reading input from interface.rlx.in

     Current dimensions of program PWSCF are:
     Max number of different atomic species (ntypx) = 10
     Max number of k-points (npk) =  40000
     Max angular momentum in pseudopotentials (lmaxx) =  3

     IMPORTANT: XC functional enforced from input :
     Exchange-correlation      = VDW-DF ( 1  4  4  0 1 0)
     Any further DFT definition will be discarded
     Please, verify this is what you really want

               file V.pbesol-spnl-kjpaw_psl.1.0.0.UPF: wavefunction(s)  3P 3D renormalized
               file O.pbesol-n-kjpaw_psl.1.0.0.UPF: wavefunction(s)  2S 2P renormalized
               file C.pbesol-n-kjpaw_psl.1.0.0.UPF: wavefunction(s)  2S 2P renormalized

     Subspace diagonalization in iterative solution of the eigenvalue problem:
     one sub-group per band group will be used
     ELPA distributed-memory algorithm (size of sub-group:  4*  4 procs)


     Parallelization info
     --------------------
     sticks:   dense  smooth     PW     G-vecs:    dense   smooth      PW
     Min         426     170     47               119505    30230    4446
     Max         427     171     48               119514    30241    4456
     Sum       13635    5445   1525              3824339   967507  142413



     bravais-lattice index     =            0
     lattice parameter (alat)  =      30.2219  a.u.
     unit-cell volume          =   28307.6739 (a.u.)^3
     number of atoms/cell      =          176
     number of atomic types    =            3
     number of electrons       =      1040.00
     number of Kohn-Sham states=          624
     kinetic-energy cutoff     =      40.0000  Ry
     charge density cutoff     =     400.0000  Ry
     convergence threshold     =      1.0E-06
     mixing beta               =       0.4000
     number of iterations used =            8  local-TF  mixing
     Exchange-correlation      = VDW-DF ( 1  4  4  0 1 0)
     nstep                     =          500


     celldm(1)=  30.221920  celldm(2)=   0.000000  celldm(3)=   0.000000
     celldm(4)=   0.000000  celldm(5)=   0.000000  celldm(6)=   0.000000

     crystal axes: (cart. coord. in units of alat)
               a(1) = (   1.000000   0.000000   0.000000 )  
               a(2) = (  -0.522247   0.468590   0.000000 )  
               a(3) = (   0.000000   0.000000   2.188492 )  

     reciprocal axes: (cart. coord. in units 2 pi/alat)
               b(1) = (  1.000000  1.114507 -0.000000 )  
               b(2) = (  0.000000  2.134061  0.000000 )  
               b(3) = (  0.000000 -0.000000  0.456936 )  


     PseudoPot. # 1 for V  read from file:
     /home/mpicuntureo/pseudos/V.pbesol-spnl-kjpaw_psl.1.0.0.UPF
     MD5 check sum: d709b3179d4cab0f72010db8785d50db
     Pseudo is Projector augmented-wave + core cor, Zval = 13.0
     Generated using "atomic" code by A. Dal Corso v.6.3
     Shape of augmentation charge: PSQ
     Using radial grid of 1181 points,  6 beta functions with: 
                l(1) =   0
                l(2) =   0
                l(3) =   1
                l(4) =   1
                l(5) =   2
                l(6) =   2
     Q(r) pseudized with 0 coefficients 


     PseudoPot. # 2 for O  read from file:
     /home/mpicuntureo/pseudos/O.pbesol-n-kjpaw_psl.1.0.0.UPF
     MD5 check sum: cb766521a97cf798d01896eaf7ac9a0a
     Pseudo is Projector augmented-wave + core cor, Zval =  6.0
     Generated using "atomic" code by A. Dal Corso v.6.3
     Shape of augmentation charge: PSQ
     Using radial grid of 1095 points,  4 beta functions with: 
                l(1) =   0
                l(2) =   0
                l(3) =   1
                l(4) =   1
     Q(r) pseudized with 0 coefficients 


     PseudoPot. # 3 for C  read from file:
     /home/mpicuntureo/pseudos/C.pbesol-n-kjpaw_psl.1.0.0.UPF
     MD5 check sum: f9b2fe17d1f478429498b05d17159f9e
     Pseudo is Projector augmented-wave + core cor, Zval =  4.0
     Generated using "atomic" code by A. Dal Corso v.6.3
     Shape of augmentation charge: PSQ
     Using radial grid of 1073 points,  4 beta functions with: 
                l(1) =   0
                l(2) =   0
                l(3) =   1
                l(4) =   1
     Q(r) pseudized with 0 coefficients 


     vdW kernel table read from file vdW_kernel_table
     MD5 check sum: 8c4337f4b28e1601c069d7ef7b6561bc

     atomic species   valence    mass     pseudopotential
        V             13.00    50.94150     V ( 1.00)
        O              6.00    15.99940     O ( 1.00)
        C              4.00    12.01100     C ( 1.00)

     No symmetry found



   Cartesian axes

     site n.     atom                  positions (alat units)
         1           V   tau(   1) = (   0.2358757   0.0850626   0.4872556  )
         2           V   tau(   2) = (   0.5540937   0.3977351   0.4890303  )
         3           V   tau(   3) = (   0.3953268   0.2413856   0.4881184  )
         4           V   tau(   4) = (  -0.2689823   0.3772128   0.5661017  )
         5           V   tau(   5) = (   0.5716723   0.2208150   0.5663084  )
         6           V   tau(   6) = (   0.4123267   0.0644543   0.5658763  )
         7           V   tau(   7) = (  -0.1096048   0.2438380   0.5660969  )
         8           V   tau(   8) = (   0.7314297   0.0880323   0.5653958  )
         9           V   tau(   9) = (   0.0498789   0.4007215   0.5663523  )
        10           V   tau(  10) = (   0.0669517   0.2240711   0.4883533  )
        11           V   tau(  11) = (   0.9081983   0.0670715   0.4879049  )
        12           V   tau(  12) = (   0.2260907   0.3794715   0.4878849  )
        13           V   tau(  13) = (   0.2324922   0.0860150   0.7838908  )
        14           V   tau(  14) = (   0.5512255   0.3982181   0.7837179  )
        15           V   tau(  15) = (   0.3918493   0.2419997   0.7835924  )
        16           V   tau(  16) = (  -0.2760240   0.3822811   0.8758586  )
        17           V   tau(  17) = (   0.5646642   0.2259986   0.8758419  )
        18           V   tau(  18) = (   0.4053924   0.0699576   0.8759846  )
        19           V   tau(  19) = (  -0.1025270   0.2392424   0.8757642  )
        20           V   tau(  20) = (   0.7382638   0.0829247   0.8760962  )
        21           V   tau(  21) = (   0.0567613   0.3953986   0.8756467  )
        22           V   tau(  22) = (   0.0702054   0.2231934   0.7836400  )
        23           V   tau(  23) = (   0.9110280   0.0669830   0.7836509  )
        24           V   tau(  24) = (   0.2296706   0.3795209   0.7835075  )
        25           O   tau(  25) = (  -0.3532098   0.4620655   0.5246606  )
        26           O   tau(  26) = (   0.4872766   0.3056379   0.5255982  )
        27           O   tau(  27) = (   0.3282373   0.1492381   0.5239339  )
        28           O   tau(  28) = (   0.3193922   0.0011871   0.5305953  )
        29           O   tau(  29) = (   0.6377492   0.3138926   0.5316844  )
        30           O   tau(  30) = (   0.4786146   0.1574106   0.5315520  )
        31           O   tau(  31) = (  -0.0163857   0.3075524   0.5325307  )
        32           O   tau(  32) = (   0.8244825   0.1511401   0.5299393  )
        33           O   tau(  33) = (   0.1427760   0.4638818   0.5306780  )
        34           O   tau(  34) = (  -0.0251548   0.1593539   0.5244836  )
        35           O   tau(  35) = (   0.8154133   0.0030090   0.5236866  )
        36           O   tau(  36) = (   0.1341115   0.3155605   0.5259109  )
        37           O   tau(  37) = (   0.0614756   0.2294333   0.3873498  )
        38           O   tau(  38) = (   0.9049203   0.0699540   0.3867138  )
        39           O   tau(  39) = (   0.2203549   0.3822840   0.3867813  )
        40           O   tau(  40) = (  -0.1163086   0.2501587   0.6663655  )
        41           O   tau(  41) = (   0.7259542   0.0951916   0.6656991  )
        42           O   tau(  42) = (   0.0440632   0.4087135   0.6665437  )
        43           O   tau(  43) = (  -0.2627172   0.3706863   0.6663777  )
        44           O   tau(  44) = (   0.5778756   0.2134745   0.6665355  )
        45           O   tau(  45) = (   0.4180001   0.0570868   0.6661367  )
        46           O   tau(  46) = (  -0.1893261   0.3104593   0.5215730  )
        47           O   tau(  47) = (   0.6515517   0.1546924   0.5211971  )
        48           O   tau(  48) = (  -0.0300724   0.4667153   0.5210913  )
        49           O   tau(  49) = (   0.1515864   0.1545669   0.5120838  )
        50           O   tau(  50) = (   0.4699945   0.4668727   0.5153719  )
        51           O   tau(  51) = (   0.3106422   0.3103907   0.5130674  )
        52           O   tau(  52) = (   0.2406432   0.0805397   0.3861481  )
        53           O   tau(  53) = (   0.5579249   0.3939770   0.3879023  )
        54           O   tau(  54) = (   0.4012248   0.2379886   0.3870484  )
        55           O   tau(  55) = (  -0.3559800   0.4621471   0.8171399  )
        56           O   tau(  56) = (   0.4848693   0.3057751   0.8166645  )
        57           O   tau(  57) = (   0.3255384   0.1497288   0.8169771  )
        58           O   tau(  58) = (   0.3157115   0.0027975   0.8355629  )
        59           O   tau(  59) = (   0.6342534   0.3150696   0.8354737  )
        60           O   tau(  60) = (   0.4749837   0.1588057   0.8353078  )
        61           O   tau(  61) = (  -0.0128865   0.3064346   0.8350685  )
        62           O   tau(  62) = (   0.8279028   0.1501126   0.8356363  )
        63           O   tau(  63) = (   0.1464892   0.4626600   0.8353726  )
        64           O   tau(  64) = (  -0.0226644   0.1593128   0.8170380  )
        65           O   tau(  65) = (   0.8181646   0.0031890   0.8170966  )
        66           O   tau(  66) = (   0.1365328   0.3157546   0.8162715  )
        67           O   tau(  67) = (   0.0725305   0.2192875   0.6829004  )
        68           O   tau(  68) = (   0.9134272   0.0633157   0.6829091  )
        69           O   tau(  69) = (   0.2325409   0.3762138   0.6827683  )
        70           O   tau(  70) = (  -0.0864448   0.2245881   0.9738012  )
        71           O   tau(  71) = (   0.7542269   0.0675719   0.9740905  )
        72           O   tau(  72) = (   0.0730300   0.3798726   0.9735234  )
        73           O   tau(  73) = (  -0.2918544   0.3971979   0.9739074  )
        74           O   tau(  74) = (   0.5484180   0.2411127   0.9737931  )
        75           O   tau(  75) = (   0.3892191   0.0854570   0.9739167  )
        76           O   tau(  76) = (  -0.1893049   0.3107368   0.8680068  )
        77           O   tau(  77) = (   0.6514927   0.1545044   0.8686373  )
        78           O   tau(  78) = (  -0.0300333   0.4669746   0.8688849  )
        79           O   tau(  79) = (   0.1514020   0.1547054   0.8216351  )
        80           O   tau(  80) = (   0.4699208   0.4668314   0.8211272  )
        81           O   tau(  81) = (   0.3106951   0.3107270   0.8211952  )
        82           O   tau(  82) = (   0.2298692   0.0897582   0.6831708  )
        83           O   tau(  83) = (   0.5490487   0.4018631   0.6829700  )
        84           O   tau(  84) = (   0.3892127   0.2453297   0.6828449  )
        85           C   tau(  85) = (  -0.1121705   0.3937980   0.2205281  )
        86           C   tau(  86) = (   0.1660925   0.0270434   0.2075302  )
        87           C   tau(  87) = (   0.0732988   0.1493758   0.2050524  )
        88           C   tau(  88) = (   0.0149019   0.0067175   0.2053298  )
        89           C   tau(  89) = (  -0.0193673   0.2715171   0.2133251  )
        90           C   tau(  90) = (  -0.0779139   0.1289831   0.2092391  )
        91           C   tau(  91) = (   0.3413540   0.4549787   0.2062329  )
        92           C   tau(  92) = (  -0.1705441   0.2511104   0.2194805  )
        93           C   tau(  93) = (   0.7710229   0.1084868   0.2159389  )
        94           C   tau(  94) = (   0.1902295   0.4345594   0.2109960  )
        95           C   tau(  95) = (  -0.2635005   0.3735630   0.2177249  )
        96           C   tau(  96) = (   0.6781015   0.2308882   0.2204865  )
        97           C   tau(  97) = (   0.6197605   0.0881522   0.2203414  )
        98           C   tau(  98) = (   0.0391299   0.4140813   0.2177008  )
        99           C   tau(  99) = (   0.5853850   0.3530569   0.2111420  )
       100           C   tau( 100) = (   0.5268453   0.2105430   0.2159741  )
       101           C   tau( 101) = (   0.4684210   0.0679463   0.2191894  )
       102           C   tau( 102) = (   0.4341986   0.3326613   0.2067252  )
       103           C   tau( 103) = (   0.3757343   0.1900278   0.2088854  )
       104           C   tau( 104) = (   0.3172601   0.0474902   0.2132306  )
       105           C   tau( 105) = (   0.2830010   0.3123420   0.2047657  )
       106           C   tau( 106) = (   0.2245551   0.1696804   0.2055453  )
       107           C   tau( 107) = (   0.1317122   0.2919795   0.2073101  )
       108           C   tau( 108) = (  -0.2747986   0.4616240   0.2126742  )
       109           C   tau( 109) = (   0.1547299   0.1152325   0.2052140  )
       110           C   tau( 110) = (  -0.4259211   0.4411893   0.2069404  )
       111           C   tau( 111) = (   0.0619346   0.2375422   0.2074583  )
       112           C   tau( 112) = (   0.0034894   0.0949115   0.2057375  )
       113           C   tau( 113) = (   0.4228284   0.4208528   0.2054918  )
       114           C   tau( 114) = (  -0.0891623   0.2170167   0.2144481  )
       115           C   tau( 115) = (   0.8522883   0.0745281   0.2097922  )
       116           C   tau( 116) = (   0.2715920   0.4005394   0.2063155  )
       117           C   tau( 117) = (  -0.1820383   0.3393671   0.2205589  )
       118           C   tau( 118) = (   0.7596066   0.1966513   0.2200059  )
       119           C   tau( 119) = (   0.7011897   0.0539761   0.2165484  )
       120           C   tau( 120) = (  -0.3333438   0.3190748   0.2170844  )
       121           C   tau( 121) = (   0.6082496   0.1764173   0.2201779  )
       122           C   tau( 122) = (   0.5499142   0.0337071   0.2204496  )
       123           C   tau( 123) = (   0.5155859   0.2986204   0.2109711  )
       124           C   tau( 124) = (   0.4570386   0.1560551   0.2148904  )
       125           C   tau( 125) = (   0.3985676   0.0134602   0.2186013  )
       126           C   tau( 126) = (   0.3644004   0.2782057   0.2057045  )
       127           C   tau( 127) = (   0.3059967   0.1355944   0.2084728  )
       128           C   tau( 128) = (   0.2131608   0.2578776   0.2051842  )
       129           C   tau( 129) = (   0.1204493   0.3800662   0.2118771  )
       130           C   tau( 130) = (  -0.0307069   0.3595822   0.2183076  )
       131           C   tau( 131) = (   0.2386307   0.0743251  -0.0156496  )
       132           C   tau( 132) = (  -0.0053834   0.1762431  -0.0161513  )
       133           C   tau( 133) = (  -0.0980909   0.2984276  -0.0087294  )
       134           C   tau( 134) = (  -0.1565468   0.1558243  -0.0114574  )
       135           C   tau( 135) = (  -0.1909150   0.4207275  -0.0083782  )
       136           C   tau( 136) = (  -0.2493326   0.2780833  -0.0072294  )
       137           C   tau( 137) = (   0.6922451   0.1354338  -0.0078238  )
       138           C   tau( 138) = (  -0.3420925   0.4003269  -0.0125276  )
       139           C   tau( 139) = (   0.5994357   0.2577345  -0.0095372  )
       140           C   tau( 140) = (   0.5409997   0.1151162  -0.0075903  )
       141           C   tau( 141) = (   0.0874188   0.0539553  -0.0188554  )
       142           C   tau( 142) = (   0.5067317   0.3799222  -0.0170676  )
       143           C   tau( 143) = (   0.4482679   0.2373337  -0.0140921  )
       144           C   tau( 144) = (   0.3897892   0.0947470  -0.0109197  )
       145           C   tau( 145) = (   0.9361708   0.0336286  -0.0184015  )
       146           C   tau( 146) = (   0.3555012   0.3595739  -0.0191306  )
       147           C   tau( 147) = (   0.2970745   0.2169333  -0.0180966  )
       148           C   tau( 148) = (   0.7849744   0.0132347  -0.0146310  )
       149           C   tau( 149) = (   0.2042619   0.3392266  -0.0174401  )
       150           C   tau( 150) = (   0.1458345   0.1965988  -0.0189714  )
       151           C   tau( 151) = (   0.1115592   0.4614114  -0.0099289  )
       152           C   tau( 152) = (   0.0530916   0.3188296  -0.0130870  )
       153           C   tau( 153) = (  -0.0396666   0.4410616  -0.0072844  )
       154           C   tau( 154) = (   0.0760226   0.1421475  -0.0188156  )
       155           C   tau( 155) = (  -0.0167117   0.2643540  -0.0124949  )
       156           C   tau( 156) = (  -0.0751914   0.1217716  -0.0156483  )
       157           C   tau( 157) = (  -0.1094818   0.3865957  -0.0072137  )
       158           C   tau( 158) = (  -0.1679015   0.2439563  -0.0083737  )
       159           C   tau( 159) = (   0.7736442   0.1013527  -0.0109100  )
       160           C   tau( 160) = (  -0.2607314   0.3662694  -0.0086938  )
       161           C   tau( 161) = (   0.6808515   0.2236333  -0.0073020  )
       162           C   tau( 162) = (   0.6224336   0.0809851  -0.0075692  )
       163           C   tau( 163) = (   0.1688239   0.0198632  -0.0161687  )
       164           C   tau( 164) = (   0.5881055   0.3458671  -0.0130747  )
       165           C   tau( 165) = (   0.5296259   0.2032804  -0.0099372  )
       166           C   tau( 166) = (  -0.5046322   0.4680901  -0.0189955  )
       167           C   tau( 167) = (   0.4369311   0.3254593  -0.0174125  )
       168           C   tau( 168) = (   0.3784661   0.1828606  -0.0146310  )
       169           C   tau( 169) = (   0.3441109   0.4477584  -0.0180985  )
       170           C   tau( 170) = (   0.2856938   0.3051259  -0.0191168  )
       171           C   tau( 171) = (   0.2272718   0.1624843  -0.0183462  )
       172           C   tau( 172) = (   0.1929267   0.4273673  -0.0140668  )
       173           C   tau( 173) = (   0.1344568   0.2847803  -0.0170570  )
       174           C   tau( 174) = (   0.0417504   0.4069461  -0.0094875  )
       175           C   tau( 175) = (   0.4711767   0.0606541  -0.0077803  )
       176           C   tau( 176) = (   0.3199836   0.0402805  -0.0114247  )

     number of k points=     4  gaussian smearing, width (Ry)=  0.1000
                       cart. coord. in units 2pi/alat
        k(    1) = (   0.0000000   0.0000000   0.0000000), wk =   0.5000000
        k(    2) = (   0.0000000  -1.0670305   0.0000000), wk =   0.5000000
        k(    3) = (  -0.5000000  -0.5572533   0.0000000), wk =   0.5000000
        k(    4) = (  -0.5000000  -1.6242837   0.0000000), wk =   0.5000000

     Dense  grid:  3824339 G-vectors     FFT dimensions: ( 200, 135, 432)

     Smooth grid:   967507 G-vectors     FFT dimensions: ( 125,  90, 270)

     Estimated max dynamical RAM per process >       1.64 GB

     Estimated total dynamical RAM >      52.51 GB

     Check: negative core charge=   -0.000004

     Initial potential from superposition of free atoms

     starting charge 1039.97582, renormalised to 1040.00000

     negative rho (up, down):  3.434E-03 0.000E+00


     %%%%%%%%%%%%%%%%%%%%%%%%%%%%%%%%%%%%%%%%%%%%%%%%%%%%%%%%%%%%%%%%%%%%%%%%
     %                                                                      %
     % You are using vdW-DF, which was implemented by the Thonhauser group. %
     % Please cite the following two papers that made this development      %
     % possible and the two reviews that describe the various versions:     %
     %                                                                      %
     %   T. Thonhauser et al., PRL 115, 136402 (2015).                      %
     %   T. Thonhauser et al., PRB 76, 125112 (2007).                       %
     %   K. Berland et al., Rep. Prog. Phys. 78, 066501 (2015).             %
     %   D.C. Langreth et al., J. Phys.: Condens. Matter 21, 084203 (2009). %
     %                                                                      %
     %                                                                      %
     % If you are calculating the stress with vdW-DF, please also cite:     %
     %                                                                      %
     %   R. Sabatini et al., J. Phys.: Condens. Matter 24, 424209 (2012).   %
     %                                                                      %
     %%%%%%%%%%%%%%%%%%%%%%%%%%%%%%%%%%%%%%%%%%%%%%%%%%%%%%%%%%%%%%%%%%%%%%%%


     Starting wfcs are  848 randomized atomic wfcs
     Checking if some PAW data can be deallocated... 

     total cpu time spent up to now is      791.4 secs

     Self-consistent Calculation

     iteration #  1     ecut=    40.00 Ry     beta= 0.40
     Davidson diagonalization with overlap
     ethr =  1.00E-02,  avg # of iterations =  2.5

     negative rho (up, down):  4.954E-03 0.000E+00

     total cpu time spent up to now is     2928.1 secs

     total energy              =   -9446.16644468 Ry
     Harris-Foulkes estimate   =   -9464.05598614 Ry
     estimated scf accuracy    <      70.15778154 Ry

     iteration #  2     ecut=    40.00 Ry     beta= 0.40
     Davidson diagonalization with overlap
     ethr =  6.75E-03,  avg # of iterations =  1.0

     negative rho (up, down):  9.119E-03 0.000E+00

     total cpu time spent up to now is     4353.5 secs

     total energy              =   -9446.63698853 Ry
     Harris-Foulkes estimate   =   -9450.36442313 Ry
     estimated scf accuracy    <      14.65988796 Ry

     iteration #  3     ecut=    40.00 Ry     beta= 0.40
     Davidson diagonalization with overlap
     ethr =  1.41E-03,  avg # of iterations =  5.2

     negative rho (up, down):  1.882E-02 0.000E+00

     total cpu time spent up to now is     6593.2 secs

     total energy              =   -9447.41231251 Ry
     Harris-Foulkes estimate   =   -9452.28601701 Ry
     estimated scf accuracy    <      21.53100225 Ry

     iteration #  4     ecut=    40.00 Ry     beta= 0.40
     Davidson diagonalization with overlap
     ethr =  1.41E-03,  avg # of iterations =  5.0

     negative rho (up, down):  3.426E-02 0.000E+00

     total cpu time spent up to now is     7768.0 secs

     total energy              =   -9449.80976354 Ry
     Harris-Foulkes estimate   =   -9451.83614385 Ry
     estimated scf accuracy    <       8.40955007 Ry

     iteration #  5     ecut=    40.00 Ry     beta= 0.40
     Davidson diagonalization with overlap
     ethr =  8.09E-04,  avg # of iterations =  3.8

     negative rho (up, down):  4.700E-02 0.000E+00

     total cpu time spent up to now is     8886.7 secs

     total energy              =   -9450.17802115 Ry
     Harris-Foulkes estimate   =   -9450.33225346 Ry
     estimated scf accuracy    <       2.80113067 Ry

     iteration #  6     ecut=    40.00 Ry     beta= 0.40
     Davidson diagonalization with overlap
     ethr =  2.69E-04,  avg # of iterations =  4.0

     negative rho (up, down):  1.408E-02 0.000E+00

     total cpu time spent up to now is    10147.1 secs

     total energy              =   -9450.21144258 Ry
     Harris-Foulkes estimate   =   -9450.47124183 Ry
     estimated scf accuracy    <       4.22976998 Ry

     iteration #  7     ecut=    40.00 Ry     beta= 0.40
     Davidson diagonalization with overlap
     ethr =  2.69E-04,  avg # of iterations =  1.2

     negative rho (up, down):  2.201E-02 0.000E+00

     total cpu time spent up to now is    11224.1 secs

     total energy              =   -9449.75563426 Ry
     Harris-Foulkes estimate   =   -9450.25113373 Ry
     estimated scf accuracy    <       2.70624935 Ry

     iteration #  8     ecut=    40.00 Ry     beta= 0.40
     Davidson diagonalization with overlap
     ethr =  2.60E-04,  avg # of iterations =  3.8

     negative rho (up, down):  1.728E-02 0.000E+00

     total cpu time spent up to now is    12352.0 secs

     total energy              =   -9449.94187047 Ry
     Harris-Foulkes estimate   =   -9449.97837606 Ry
     estimated scf accuracy    <       0.38035312 Ry

     iteration #  9     ecut=    40.00 Ry     beta= 0.40
     Davidson diagonalization with overlap
     c_bands:  4 eigenvalues not converged
     c_bands:  1 eigenvalues not converged
     c_bands:  4 eigenvalues not converged
     ethr =  3.66E-05,  avg # of iterations = 16.5

     negative rho (up, down):  1.801E-02 0.000E+00

     total cpu time spent up to now is    14031.1 secs

     total energy              =   -9449.98568726 Ry
     Harris-Foulkes estimate   =   -9450.00176055 Ry
     estimated scf accuracy    <       0.16623501 Ry

     iteration # 10     ecut=    40.00 Ry     beta= 0.40
     Davidson diagonalization with overlap
     c_bands:  5 eigenvalues not converged
     ethr =  1.60E-05,  avg # of iterations =  6.8

     negative rho (up, down):  3.180E-02 0.000E+00

     total cpu time spent up to now is    15276.0 secs

     total energy              =   -9449.97056343 Ry
     Harris-Foulkes estimate   =   -9449.98829785 Ry
     estimated scf accuracy    <       0.12085227 Ry

     iteration # 11     ecut=    40.00 Ry     beta= 0.40
     Davidson diagonalization with overlap
     c_bands:  3 eigenvalues not converged
     ethr =  1.16E-05,  avg # of iterations =  9.8

     negative rho (up, down):  3.732E-02 0.000E+00

     total cpu time spent up to now is    16631.1 secs

     total energy              =   -9449.96932896 Ry
     Harris-Foulkes estimate   =   -9449.97726616 Ry
     estimated scf accuracy    <       0.06106630 Ry

     iteration # 12     ecut=    40.00 Ry     beta= 0.40
     Davidson diagonalization with overlap
     c_bands:  2 eigenvalues not converged
     ethr =  5.87E-06,  avg # of iterations = 11.5

     negative rho (up, down):  2.945E-02 0.000E+00

     total cpu time spent up to now is    17826.1 secs

     total energy              =   -9449.96666103 Ry
     Harris-Foulkes estimate   =   -9449.97205743 Ry
     estimated scf accuracy    <       0.04369862 Ry

     iteration # 13     ecut=    40.00 Ry     beta= 0.40
     Davidson diagonalization with overlap
     ethr =  4.20E-06,  avg # of iterations =  4.8

     negative rho (up, down):  2.086E-02 0.000E+00

     total cpu time spent up to now is    18935.1 secs

     total energy              =   -9449.96755235 Ry
     Harris-Foulkes estimate   =   -9449.96961736 Ry
     estimated scf accuracy    <       0.03269907 Ry

     iteration # 14     ecut=    40.00 Ry     beta= 0.40
     Davidson diagonalization with overlap
     ethr =  3.14E-06,  avg # of iterations =  5.0

     negative rho (up, down):  1.863E-02 0.000E+00

     total cpu time spent up to now is    20048.6 secs

     total energy              =   -9449.96662106 Ry
     Harris-Foulkes estimate   =   -9449.96917292 Ry
     estimated scf accuracy    <       0.02085723 Ry

     iteration # 15     ecut=    40.00 Ry     beta= 0.40
     Davidson diagonalization with overlap
     c_bands:  5 eigenvalues not converged
     ethr =  2.01E-06,  avg # of iterations = 13.8

     negative rho (up, down):  1.640E-02 0.000E+00

     total cpu time spent up to now is    21273.0 secs

     total energy              =   -9449.96723021 Ry
     Harris-Foulkes estimate   =   -9449.96793852 Ry
     estimated scf accuracy    <       0.01567911 Ry

     iteration # 16     ecut=    40.00 Ry     beta= 0.40
     Davidson diagonalization with overlap
     c_bands:  4 eigenvalues not converged
     ethr =  1.51E-06,  avg # of iterations =  7.0

     negative rho (up, down):  3.142E-02 0.000E+00

     total cpu time spent up to now is    22413.7 secs

     total energy              =   -9449.96571935 Ry
     Harris-Foulkes estimate   =   -9449.96757433 Ry
     estimated scf accuracy    <       0.00939751 Ry

     iteration # 17     ecut=    40.00 Ry     beta= 0.40
     Davidson diagonalization with overlap
     ethr =  9.04E-07,  avg # of iterations =  9.0

     negative rho (up, down):  3.657E-02 0.000E+00

     total cpu time spent up to now is    23591.0 secs

     total energy              =   -9449.96569233 Ry
     Harris-Foulkes estimate   =   -9449.96613295 Ry
     estimated scf accuracy    <       0.00481584 Ry

     iteration # 18     ecut=    40.00 Ry     beta= 0.40
     Davidson diagonalization with overlap
     ethr =  4.63E-07,  avg # of iterations =  2.8

     negative rho (up, down):  4.130E-02 0.000E+00

     total cpu time spent up to now is    24685.2 secs

     total energy              =   -9449.96552866 Ry
     Harris-Foulkes estimate   =   -9449.96591896 Ry
     estimated scf accuracy    <       0.00345708 Ry

     iteration # 19     ecut=    40.00 Ry     beta= 0.40
     Davidson diagonalization with overlap
     ethr =  3.32E-07,  avg # of iterations =  2.0

     negative rho (up, down):  4.932E-02 0.000E+00

     total cpu time spent up to now is    25776.0 secs

     total energy              =   -9449.96540833 Ry
     Harris-Foulkes estimate   =   -9449.96561602 Ry
     estimated scf accuracy    <       0.00217148 Ry

     iteration # 20     ecut=    40.00 Ry     beta= 0.40
     Davidson diagonalization with overlap
     ethr =  2.09E-07,  avg # of iterations =  2.0

     negative rho (up, down):  5.187E-02 0.000E+00

     total cpu time spent up to now is    26916.6 secs

     total energy              =   -9449.96549084 Ry
     Harris-Foulkes estimate   =   -9449.96553671 Ry
     estimated scf accuracy    <       0.00124110 Ry

     iteration # 21     ecut=    40.00 Ry     beta= 0.40
     Davidson diagonalization with overlap
     ethr =  1.19E-07,  avg # of iterations =  3.5

     negative rho (up, down):  5.652E-02 0.000E+00

     total cpu time spent up to now is    28019.3 secs

     total energy              =   -9449.96552825 Ry
     Harris-Foulkes estimate   =   -9449.96553777 Ry
     estimated scf accuracy    <       0.00073871 Ry

     iteration # 22     ecut=    40.00 Ry     beta= 0.40
     Davidson diagonalization with overlap
     ethr =  7.10E-08,  avg # of iterations =  4.2

     negative rho (up, down):  5.959E-02 0.000E+00

     total cpu time spent up to now is    29156.1 secs

     total energy              =   -9449.96555815 Ry
     Harris-Foulkes estimate   =   -9449.96556855 Ry
     estimated scf accuracy    <       0.00033036 Ry

     iteration # 23     ecut=    40.00 Ry     beta= 0.40
     Davidson diagonalization with overlap
     ethr =  3.18E-08,  avg # of iterations =  6.0

     negative rho (up, down):  6.055E-02 0.000E+00

     total cpu time spent up to now is    30315.0 secs

     total energy              =   -9449.96555556 Ry
     Harris-Foulkes estimate   =   -9449.96557401 Ry
     estimated scf accuracy    <       0.00019044 Ry

     iteration # 24     ecut=    40.00 Ry     beta= 0.40
     Davidson diagonalization with overlap
     ethr =  1.83E-08,  avg # of iterations =  5.2

     negative rho (up, down):  5.971E-02 0.000E+00

     total cpu time spent up to now is    31458.9 secs

     total energy              =   -9449.96553315 Ry
     Harris-Foulkes estimate   =   -9449.96556536 Ry
     estimated scf accuracy    <       0.00009898 Ry

     iteration # 25     ecut=    40.00 Ry     beta= 0.40
     Davidson diagonalization with overlap
     ethr =  9.52E-09,  avg # of iterations =  8.0

     negative rho (up, down):  5.756E-02 0.000E+00

     total cpu time spent up to now is    32674.7 secs

     total energy              =   -9449.96552837 Ry
     Harris-Foulkes estimate   =   -9449.96554067 Ry
     estimated scf accuracy    <       0.00003686 Ry

     iteration # 26     ecut=    40.00 Ry     beta= 0.40
     Davidson diagonalization with overlap
     ethr =  3.54E-09,  avg # of iterations =  5.0

     negative rho (up, down):  5.669E-02 0.000E+00

     total cpu time spent up to now is    34010.6 secs

     total energy              =   -9449.96553281 Ry
     Harris-Foulkes estimate   =   -9449.96553301 Ry
     estimated scf accuracy    <       0.00000846 Ry

     iteration # 27     ecut=    40.00 Ry     beta= 0.40
     Davidson diagonalization with overlap
     ethr =  8.14E-10,  avg # of iterations =  5.0

     negative rho (up, down):  5.652E-02 0.000E+00

     total cpu time spent up to now is    35323.7 secs

     total energy              =   -9449.96553381 Ry
     Harris-Foulkes estimate   =   -9449.96553376 Ry
     estimated scf accuracy    <       0.00000342 Ry

     iteration # 28     ecut=    40.00 Ry     beta= 0.40
     Davidson diagonalization with overlap
     ethr =  3.29E-10,  avg # of iterations =  3.2

     negative rho (up, down):  5.641E-02 0.000E+00

     total cpu time spent up to now is    36448.8 secs

     total energy              =   -9449.96553424 Ry
     Harris-Foulkes estimate   =   -9449.96553402 Ry
     estimated scf accuracy    <       0.00000136 Ry

     iteration # 29     ecut=    40.00 Ry     beta= 0.40
     Davidson diagonalization with overlap
     ethr =  1.31E-10,  avg # of iterations =  5.0

     negative rho (up, down):  5.605E-02 0.000E+00

     total cpu time spent up to now is    37835.5 secs

     End of self-consistent calculation

          k = 0.0000 0.0000 0.0000 (121045 PWs)   bands (ev):

   -65.9090 -65.9075 -65.9073 -65.9060 -65.9057 -65.9040 -65.8409 -65.8398
   -65.8393 -65.8374 -65.8364 -65.8361 -65.8343 -65.8329 -65.8325 -65.8314
   -65.8300 -65.8297 -65.7694 -65.7687 -65.7679 -65.7676 -65.7670 -65.7665
   -39.8864 -39.8839 -39.8815 -39.8813 -39.8791 -39.8788 -39.8356 -39.8314
   -39.8306 -39.8276 -39.8261 -39.8254 -39.8171 -39.8146 -39.8127 -39.8122
   -39.8098 -39.8094 -39.7591 -39.7585 -39.7524 -39.7364 -39.7331 -39.7328
   -39.7305 -39.7292 -39.7288 -39.7275 -39.7263 -39.7159 -39.7146 -39.7078
   -39.7067 -39.7055 -39.6761 -39.6758 -39.6753 -39.6636 -39.6634 -39.6613
   -39.6602 -39.6596 -39.6513 -39.6506 -39.6505 -39.6500 -39.6340 -39.6335
   -39.6269 -39.6250 -39.6247 -39.6243 -39.6236 -39.6054 -39.6006 -39.6003
   -39.6001 -39.6000 -39.5986 -39.5975 -39.5931 -39.5842 -39.5837 -39.5598
   -39.5594 -39.5585 -39.5504 -39.5498 -39.5440 -39.5434 -39.5185 -39.5169
   -20.1816 -19.9272 -19.5371 -19.4070 -19.3965 -19.3319 -19.3311 -19.2807
   -19.2469 -19.2469 -19.0830 -19.0756 -19.0100 -19.0087 -18.9927 -18.9924
   -18.8887 -18.8871 -18.8670 -18.8668 -18.7603 -18.7598 -18.5174 -18.5173
   -18.5169 -18.3902 -18.3830 -18.3468 -18.3461 -18.3431 -18.3422 -18.2981
   -18.2978 -18.2967 -18.2953 -18.2701 -18.2680 -18.2451 -18.2444 -18.2385
   -18.2325 -18.1916 -18.1911 -18.1856 -18.1729 -18.1727 -18.1489 -18.1438
   -18.1430 -18.0627 -18.0528 -18.0525 -18.0333 -18.0331 -17.7050 -17.6998
   -17.6967 -17.6728 -17.6703 -17.6677 -17.6655 -17.6466 -17.6306 -17.6288
   -17.5827 -17.5814 -17.5515 -17.5500 -17.5400 -17.5018 -17.5014 -17.4808
   -17.4486 -17.4369 -17.4284 -17.4276 -17.4111 -17.4106 -16.8474 -16.8470
   -16.6001 -16.5982 -16.5262 -16.5255 -16.2768 -16.2766 -16.1758 -16.1745
   -15.9436 -15.9433 -15.9365 -15.9220 -15.7882 -15.7881 -15.6951 -15.6950
   -15.5472 -15.5472 -15.5443 -15.5441 -15.3004 -15.3002 -13.9838 -13.9837
   -13.7472 -13.7454 -12.9311 -12.9311 -12.7333 -12.7332 -12.6972 -12.6953
   -12.4938 -12.4935 -12.2163 -12.2155 -12.1068 -12.1066 -11.9831 -11.9774
   -11.8682 -11.8680 -11.8027 -11.8027 -11.6240 -11.6235 -11.5716 -11.5716
   -11.3842 -11.3839 -10.5337 -10.5337 -10.3965 -10.3962 -10.2972 -10.2965
   -10.1634 -10.1626  -9.4643  -9.4642  -9.2296  -9.2294  -8.9868  -8.9868
    -8.7576  -8.7573  -8.4316  -8.4120  -8.4118  -8.1811  -8.1803  -8.0532
    -8.0531  -7.9393  -7.9393  -7.8306  -7.8302  -7.7166  -7.7135  -7.7107
    -7.4079  -7.4046  -7.4039  -7.4036  -7.3814  -7.3810  -7.3066  -7.3055
    -7.1754  -7.1746  -7.1590  -7.1586  -7.1406  -7.1379  -6.9250  -6.8925
    -6.7204  -6.7149  -6.6745  -6.6742  -6.6554  -6.6509  -6.6221  -6.6219
    -6.6109  -6.6065  -6.5621  -6.5620  -6.5368  -6.5341  -6.4991  -6.4968
    -6.4669  -6.4599  -6.4252  -6.4176  -6.3338  -6.3299  -6.3015  -6.2964
    -6.2926  -6.2918  -6.1867  -6.1861  -6.1561  -6.1514  -6.0875  -6.0857
    -6.0833  -6.0717  -6.0642  -6.0523  -6.0471  -6.0470  -6.0349  -5.9239
    -5.9117  -5.9109  -5.8662  -5.8588  -5.8215  -5.8199  -5.7890  -5.7878
    -5.7857  -5.7609  -5.7603  -5.6999  -5.6530  -5.6523  -5.6380  -5.6335
    -5.6261  -5.6239  -5.5501  -5.5491  -5.5041  -5.4834  -5.4799  -5.4352
    -5.4322  -5.3729  -5.3707  -5.3585  -5.3571  -5.3438  -5.3435  -5.2798
    -5.2796  -5.2712  -5.2271  -5.2006  -5.1983  -5.1280  -5.1251  -5.1213
    -5.1177  -5.0901  -5.0885  -5.0595  -5.0594  -5.0024  -4.9987  -4.9783
    -4.9689  -4.9643  -4.8438  -4.8427  -4.8301  -4.8065  -4.8046  -4.7884
    -4.6830  -4.6809  -4.6612  -4.6591  -4.6548  -4.5496  -4.5441  -4.5378
    -4.4731  -4.4531  -4.4516  -4.3900  -4.3581  -4.3535  -4.3532  -4.3082
    -4.2956  -4.2929  -4.2697  -4.2670  -4.2314  -4.2248  -4.2238  -4.1362
    -4.1259  -4.1227  -4.1111  -4.0887  -4.0820  -4.0705  -4.0690  -4.0361
    -4.0350  -3.9647  -3.9628  -3.9284  -3.9223  -3.9070  -3.8939  -3.8901
    -3.8615  -3.8584  -3.8462  -3.8429  -3.8374  -3.8219  -3.8165  -3.8152
    -3.8051  -3.7979  -3.7906  -3.7557  -3.7504  -3.7494  -3.7414  -3.6734
    -3.6661  -3.6609  -3.6529  -3.6327  -3.6191  -3.5891  -3.5824  -3.5808
    -3.5477  -3.5442  -3.5331  -3.5319  -3.5013  -3.4914  -3.4904  -3.4838
    -3.4830  -3.4319  -3.4318  -3.4181  -3.4104  -3.4042  -3.3934  -3.3909
    -3.3353  -3.3218  -3.2701  -3.2596  -3.2518  -3.2188  -3.2048  -3.2010
    -3.1906  -3.1707  -3.1683  -3.1560  -3.1436  -3.0770  -3.0762  -3.0544
    -3.0196  -3.0177  -3.0124  -3.0034  -2.9955  -2.9764  -2.9749  -2.9545
    -2.9523  -2.9489  -2.9464  -2.8914  -2.8548  -2.8516  -2.8374  -2.8011
    -2.7965  -2.7384  -2.6975  -2.6856  -2.6821  -2.6623  -2.6603  -2.6234
    -2.6205  -2.6044  -2.5877  -2.5872  -2.5782  -2.5626  -2.5394  -2.5383
    -2.5184  -2.5181  -2.4605  -2.4564  -2.4561  -2.3842  -2.3741  -2.3058
    -2.3028  -2.2925  -2.2804  -2.2181  -2.2162  -2.1635  -2.1615  -2.1379
    -2.1013  -2.0963  -2.0198  -2.0177  -1.5368  -1.5366  -1.1707  -1.1698
     0.0137   0.0616   0.0802   0.2424   0.3847   0.3850   0.4189   0.4279
     0.4741   0.4761   0.6148   0.6198   0.6717   0.6728   0.7014   0.7061
     1.1236   1.1260   1.1773   1.1802   1.2178   1.2192   1.2204   1.3055
     1.3064   1.3104   1.3793   1.4976   1.5302   1.5343   1.5869   1.6076
     1.6220   1.6282   1.6284   1.6511   1.6543   1.7090   1.7130   1.7339
     1.7394   1.7406   1.7591   1.7602   1.7987   1.7991   1.8105   1.8110
     1.8250   1.8271   1.8561   1.8565   1.8731   1.9654   1.9664   1.9687
     2.0104   2.0171   2.0787   2.0812   2.0918   2.0930   2.1282   2.1285
     2.1384   2.1395   2.1626   2.1680   2.1690   2.1791   2.2203   2.2223
     2.2511   2.2554   2.2571   2.2895   2.3237   2.3413   2.3696   2.3715
     2.4617   2.4670   2.5128   2.5242   2.5422   2.6579   2.6924   2.7091
     2.7390   2.7607   2.7746   2.7748   2.7774   2.7802   2.7841   2.8147
     2.8176   2.8700   2.8852   2.8928   2.9110   2.9741   3.0251   3.1344

          k = 0.0000-1.0670 0.0000 (120926 PWs)   bands (ev):

   -65.9087 -65.9078 -65.9071 -65.9064 -65.9056 -65.9038 -65.8407 -65.8401
   -65.8392 -65.8372 -65.8369 -65.8359 -65.8337 -65.8337 -65.8322 -65.8313
   -65.8306 -65.8292 -65.7692 -65.7688 -65.7680 -65.7676 -65.7672 -65.7663
   -39.8847 -39.8844 -39.8830 -39.8827 -39.8793 -39.8768 -39.8327 -39.8312
   -39.8300 -39.8299 -39.8282 -39.8255 -39.8157 -39.8157 -39.8133 -39.8129
   -39.8104 -39.8077 -39.7643 -39.7483 -39.7478 -39.7339 -39.7336 -39.7326
   -39.7322 -39.7309 -39.7306 -39.7301 -39.7290 -39.7228 -39.7216 -39.7197
   -39.6854 -39.6850 -39.6805 -39.6801 -39.6790 -39.6698 -39.6696 -39.6686
   -39.6661 -39.6545 -39.6465 -39.6464 -39.6434 -39.6431 -39.6359 -39.6339
   -39.6293 -39.6203 -39.6199 -39.6135 -39.6130 -39.6118 -39.6113 -39.6094
   -39.6088 -39.6035 -39.6034 -39.6005 -39.5852 -39.5762 -39.5759 -39.5624
   -39.5620 -39.5608 -39.5580 -39.5518 -39.5286 -39.5283 -39.5279 -39.5276
   -19.7624 -19.7623 -19.7061 -19.7061 -19.5152 -19.5147 -19.4470 -19.4467
   -19.3347 -19.3340 -19.3144 -19.3136 -19.2014 -19.1999 -19.1797 -19.1782
   -18.6429 -18.5557 -18.5421 -18.5131 -18.4793 -18.4366 -18.4161 -18.4158
   -18.4140 -18.3609 -18.3585 -18.3118 -18.2857 -18.2853 -18.2614 -18.2302
   -18.2292 -18.2191 -18.2185 -18.2046 -18.2032 -18.1649 -18.1511 -18.1508
   -18.1355 -18.1352 -18.1230 -18.0649 -18.0644 -18.0119 -17.9727 -17.9727
   -17.9695 -17.9694 -17.8981 -17.8977 -17.8082 -17.8080 -17.7556 -17.7545
   -17.7543 -17.7484 -17.6898 -17.6886 -17.6694 -17.6679 -17.6608 -17.6519
   -17.6487 -17.6465 -17.6463 -17.6453 -17.5896 -17.5700 -17.5500 -17.5432
   -17.5231 -17.5201 -17.5193 -17.5148 -17.4971 -17.4957 -17.4426 -17.4417
   -17.4283 -17.4277 -17.4212 -17.4022 -16.5002 -16.5002 -16.2532 -16.2496
   -16.0483 -16.0470 -15.8089 -15.7933 -15.0436 -15.0435 -14.9229 -14.8047
   -14.8045 -14.7941 -14.7941 -14.6821 -14.5559 -14.5538 -14.4155 -14.4150
   -14.1740 -14.1689 -13.8521 -13.6151 -13.2750 -13.2748 -13.0354 -13.0350
   -13.0031 -13.0025 -12.7694 -12.7631 -12.5160 -12.5149 -12.4235 -12.4234
   -12.2840 -12.2725 -12.1860 -12.1828 -10.7158 -10.7156 -10.4870 -10.4855
    -9.9785  -9.9783  -9.7789  -9.7787  -9.7453  -9.7438  -9.5527  -9.5457
    -9.4950  -9.4950  -9.2607  -9.2602  -9.2589  -9.2589  -9.1395  -9.1394
    -9.0439  -9.0439  -9.0270  -9.0263  -8.9108  -8.9107  -8.8178  -8.8132
    -8.7859  -8.7857  -8.5524  -8.5517  -7.9941  -7.9940  -7.9252  -7.9247
    -7.8583  -7.8581  -7.7614  -7.7611  -7.6094  -7.6094  -7.3829  -7.3799
    -7.2258  -7.2247  -7.1471  -7.1461  -7.1373  -7.1346  -7.0872  -6.9235
    -6.8893  -6.8674  -6.7933  -6.7933  -6.5659  -6.5656  -6.5402  -6.5393
    -6.5203  -6.5192  -6.5121  -6.4287  -6.4282  -6.3882  -6.3878  -6.3764
    -6.3647  -6.3437  -6.3435  -6.2433  -6.2431  -6.2233  -6.1942  -6.1564
    -6.1360  -6.1244  -6.1239  -6.0257  -6.0184  -6.0143  -6.0139  -6.0018
    -6.0016  -5.9320  -5.9242  -5.9220  -5.9141  -5.9116  -5.8499  -5.8150
    -5.8133  -5.8122  -5.8053  -5.7719  -5.7697  -5.7457  -5.7420  -5.7403
    -5.6707  -5.6699  -5.6578  -5.6563  -5.6188  -5.6139  -5.6042  -5.5811
    -5.5322  -5.5310  -5.4879  -5.4878  -5.3998  -5.3988  -5.3267  -5.3243
    -5.2970  -5.2945  -5.2679  -5.2676  -5.2376  -5.2173  -5.1823  -5.1811
    -5.1788  -5.1027  -5.1013  -5.0690  -5.0595  -5.0469  -5.0361  -5.0213
    -5.0191  -5.0145  -4.9711  -4.9187  -4.9171  -4.9145  -4.8812  -4.8796
    -4.8763  -4.8738  -4.8728  -4.8708  -4.8690  -4.8536  -4.8180  -4.8163
    -4.7857  -4.7792  -4.7738  -4.7385  -4.7367  -4.7102  -4.6715  -4.6707
    -4.6575  -4.6383  -4.6170  -4.5804  -4.5788  -4.5663  -4.5647  -4.5049
    -4.5048  -4.4960  -4.4904  -4.4781  -4.4769  -4.4197  -4.3609  -4.3562
    -4.3521  -4.2810  -4.2797  -4.2561  -4.2507  -4.2389  -4.2370  -4.1732
    -4.1718  -4.1239  -4.0849  -4.0642  -4.0319  -3.9952  -3.9937  -3.9858
    -3.9712  -3.9624  -3.9598  -3.9479  -3.9342  -3.9341  -3.8274  -3.8248
    -3.8231  -3.8006  -3.7725  -3.7719  -3.7402  -3.7281  -3.7257  -3.7229
    -3.6782  -3.6769  -3.6457  -3.6150  -3.6147  -3.6004  -3.5348  -3.5327
    -3.5126  -3.5061  -3.5018  -3.4872  -3.4623  -3.4621  -3.4450  -3.4259
    -3.4053  -3.4042  -3.3848  -3.3824  -3.3591  -3.3567  -3.3101  -3.2670
    -3.2585  -3.2531  -3.2484  -3.2421  -3.2207  -3.1525  -3.1491  -3.1391
    -3.1298  -3.1285  -3.0635  -3.0548  -3.0352  -3.0251  -3.0195  -3.0172
    -2.9782  -2.9765  -2.9633  -2.9617  -2.9421  -2.9217  -2.9176  -2.8584
    -2.8506  -2.8238  -2.8229  -2.7721  -2.7687  -2.7275  -2.7177  -2.7057
    -2.7026  -2.6685  -2.6621  -2.6332  -2.6275  -2.5833  -2.5786  -2.5766
    -2.5741  -2.5094  -2.5069  -2.5011  -2.4938  -2.4898  -2.4344  -2.4337
    -2.4319  -2.4300  -2.3441  -2.3426  -2.3262  -2.3113  -2.3079  -2.2544
    -2.2520  -2.2384  -2.2198  -2.2181  -2.1766  -2.1428  -2.0820  -2.0806
    -2.0775  -2.0490  -2.0463  -2.0071  -1.8322  -1.8229  -1.6655  -1.6365
     0.2026   0.2046   0.2518   0.2542   0.2861   0.2877   0.3367   0.3373
     0.5368   0.5899   0.7339   0.7606   0.7906   0.7979   1.0304   1.0401
     1.0564   1.0666   1.0716   1.0897   1.1455   1.1636   1.2224   1.2649
     1.2697   1.2991   1.2997   1.3567   1.3584   1.3625   1.3663   1.3677
     1.3788   1.4850   1.4853   1.5062   1.5943   1.6084   1.6156   1.6479
     1.6521   1.6816   1.6831   1.6893   1.6961   1.7047   1.7334   1.7405
     1.7530   1.7562   1.7627   1.7695   1.7942   1.7955   1.7994   1.8232
     1.8247   1.8454   1.9401   1.9786   2.0073   2.0087   2.0128   2.0189
     2.0589   2.0690   2.0771   2.1057   2.1081   2.1111   2.1547   2.1556
     2.1887   2.1916   2.2236   2.2314   2.2360   2.2624   2.2684   2.3115
     2.3599   2.3617   2.3848   2.4250   2.4493   2.4706   2.4912   2.4924
     2.5139   2.5156   2.7502   2.7925   2.9290   2.9653   3.0459   3.0471
     3.0748   3.0779   3.0816   3.1021   3.1050   3.1090   3.1102   3.1453

          k =-0.5000-0.5573 0.0000 (120880 PWs)   bands (ev):

   -65.9087 -65.9078 -65.9071 -65.9064 -65.9056 -65.9039 -65.8407 -65.8401
   -65.8392 -65.8372 -65.8368 -65.8359 -65.8337 -65.8337 -65.8322 -65.8313
   -65.8306 -65.8293 -65.7692 -65.7688 -65.7680 -65.7676 -65.7671 -65.7663
   -39.8851 -39.8849 -39.8823 -39.8820 -39.8793 -39.8769 -39.8346 -39.8334
   -39.8298 -39.8270 -39.8263 -39.8255 -39.8159 -39.8158 -39.8129 -39.8126
   -39.8104 -39.8078 -39.7635 -39.7536 -39.7531 -39.7382 -39.7353 -39.7351
   -39.7321 -39.7300 -39.7295 -39.7289 -39.7243 -39.7181 -39.7119 -39.7103
   -39.6901 -39.6894 -39.6784 -39.6772 -39.6772 -39.6766 -39.6749 -39.6748
   -39.6619 -39.6527 -39.6516 -39.6512 -39.6434 -39.6308 -39.6307 -39.6299
   -39.6287 -39.6244 -39.6239 -39.6133 -39.6130 -39.6129 -39.6124 -39.6076
   -39.6072 -39.6011 -39.6010 -39.6006 -39.5853 -39.5847 -39.5842 -39.5642
   -39.5572 -39.5570 -39.5564 -39.5507 -39.5295 -39.5289 -39.5268 -39.5262
   -19.9470 -19.9469 -19.6935 -19.6931 -19.3842 -19.3835 -19.2559 -19.2554
   -19.2435 -19.2428 -19.1549 -19.1549 -19.1291 -19.1283 -19.0437 -19.0437
   -18.9034 -18.9032 -18.7929 -18.7923 -18.6267 -18.5793 -18.5337 -18.5033
   -18.4971 -18.4492 -18.4450 -18.4448 -18.4158 -18.3541 -18.3537 -18.3248
   -18.3208 -18.3203 -18.2492 -18.2487 -18.2070 -18.2064 -18.1991 -18.1699
   -18.1683 -18.1682 -18.1448 -18.1440 -18.1264 -18.0955 -18.0950 -18.0553
   -18.0549 -18.0348 -17.8668 -17.8456 -17.6935 -17.6912 -17.6904 -17.6891
   -17.6817 -17.6792 -17.6780 -17.6386 -17.6288 -17.6259 -17.5893 -17.5704
   -17.5454 -17.5422 -17.5397 -17.5210 -17.4863 -17.4853 -17.4420 -17.4411
   -17.4331 -17.4329 -17.4284 -17.4277 -17.4211 -17.4023 -17.1814 -17.1739
   -17.1140 -17.1136 -16.8647 -16.8582 -16.7289 -16.7284 -16.5237 -16.5237
   -16.4811 -16.4809 -16.2775 -16.2765 -15.2228 -15.2226 -15.0409 -14.9800
   -14.9796 -14.8057 -14.8027 -14.8027 -14.5794 -14.5440 -13.8489 -13.8070
   -13.8069 -13.6155 -13.6132 -13.6094 -13.5699 -13.5640 -13.3933 -13.3593
   -12.8103 -12.8103 -12.7269 -12.7267 -12.5813 -12.5752 -12.4911 -12.4909
   -11.3629 -11.3626 -11.1281 -11.1279 -11.0115 -11.0115 -10.9728 -10.9728
   -10.7755 -10.7749 -10.7385 -10.7354 -10.5466 -10.5460 -10.3163 -10.3146
    -9.7576  -9.7576  -9.5255  -9.5240  -9.1624  -9.1623  -8.9291  -8.9269
    -8.6083  -8.6083  -8.4245  -8.4245  -8.3741  -8.3740  -8.1951  -8.1951
    -8.1484  -8.1472  -7.9347  -7.9310  -7.7306  -7.6901  -7.6805  -7.6804
    -7.5863  -7.5860  -7.4565  -7.4558  -7.4378  -7.4362  -7.3582  -7.3522
    -7.3114  -7.3114  -7.2031  -7.2029  -7.1604  -7.1601  -7.0853  -7.0846
    -7.0638  -7.0633  -6.9378  -6.9355  -6.9349  -6.8785  -6.8782  -6.7089
    -6.6550  -6.6542  -6.5451  -6.5446  -6.5230  -6.5214  -6.5075  -6.5068
    -6.4532  -6.4528  -6.4494  -6.4428  -6.4224  -6.4221  -6.3932  -6.3924
    -6.3881  -6.3872  -6.3296  -6.2545  -6.2321  -6.2312  -6.1843  -6.1547
    -6.1280  -6.0220  -6.0187  -5.9623  -5.9593  -5.9553  -5.9487  -5.9451
    -5.9052  -5.9024  -5.8390  -5.8374  -5.8344  -5.7417  -5.6957  -5.6927
    -5.6332  -5.6302  -5.6038  -5.6006  -5.5866  -5.5806  -5.4984  -5.4976
    -5.4068  -5.4050  -5.3913  -5.3912  -5.3642  -5.3528  -5.3525  -5.3190
    -5.2449  -5.2188  -5.2151  -5.2129  -5.2011  -5.1774  -5.1673  -5.1668
    -5.1263  -5.1253  -5.1171  -5.0913  -5.0890  -5.0391  -5.0373  -5.0287
    -4.9626  -4.9513  -4.8866  -4.8856  -4.8809  -4.8774  -4.8568  -4.8549
    -4.8254  -4.8049  -4.7893  -4.7829  -4.7750  -4.7728  -4.7450  -4.7081
    -4.6783  -4.6754  -4.6737  -4.6478  -4.6436  -4.6432  -4.5933  -4.5929
    -4.5845  -4.5835  -4.5590  -4.5542  -4.4919  -4.4733  -4.4658  -4.4643
    -4.4436  -4.4415  -4.3835  -4.3796  -4.3680  -4.3670  -4.3438  -4.3040
    -4.2911  -4.2866  -4.2433  -4.2032  -4.1940  -4.1934  -4.1830  -4.1665
    -4.1660  -4.1288  -4.1250  -4.0784  -4.0698  -4.0666  -4.0456  -4.0433
    -4.0426  -4.0401  -4.0065  -3.9850  -3.9822  -3.9471  -3.9465  -3.9338
    -3.8966  -3.8870  -3.8854  -3.8473  -3.8463  -3.8348  -3.8098  -3.7919
    -3.7910  -3.7883  -3.7485  -3.7472  -3.6837  -3.6760  -3.5742  -3.5711
    -3.5276  -3.5177  -3.4868  -3.4836  -3.4476  -3.4431  -3.3965  -3.3959
    -3.3802  -3.3773  -3.3658  -3.3579  -3.3423  -3.3398  -3.3371  -3.3304
    -3.3016  -3.2993  -3.2759  -3.2135  -3.2003  -3.1950  -3.1714  -3.1699
    -3.0947  -3.0915  -3.0630  -3.0388  -3.0385  -3.0081  -2.9976  -2.9938
    -2.9863  -2.9281  -2.9256  -2.9158  -2.9129  -2.8758  -2.8718  -2.8614
    -2.8606  -2.8564  -2.8506  -2.7546  -2.7523  -2.7233  -2.7205  -2.7158
    -2.7107  -2.7083  -2.7055  -2.6757  -2.6380  -2.5940  -2.5928  -2.5703
    -2.5634  -2.5619  -2.5145  -2.5139  -2.5072  -2.5064  -2.4938  -2.4892
    -2.4148  -2.4014  -2.3910  -2.3874  -2.3754  -2.3488  -2.3462  -2.3415
    -2.3360  -2.3254  -2.3044  -2.2848  -2.2827  -2.2779  -2.2484  -2.2027
    -2.1134  -2.0913  -2.0872  -2.0291  -1.2265  -1.2237  -0.8144  -0.8015
     0.0599   0.0613   0.1782   0.1816   0.2451   0.2461   0.2804   0.2839
     0.3571   0.3727   0.3823   0.3837   0.5259   0.5590   0.6665   0.7132
     1.0736   1.0997   1.1106   1.1108   1.1241   1.1766   1.2355   1.2377
     1.2441   1.3316   1.3330   1.3405   1.3417   1.4202   1.4335   1.4337
     1.4592   1.4681   1.4691   1.5314   1.5714   1.5771   1.6076   1.6106
     1.6453   1.6892   1.6994   1.7130   1.7387   1.7605   1.7674   1.7762
     1.7767   1.8113   1.8124   1.8224   1.8261   1.8354   1.8565   1.8843
     1.8861   1.9346   1.9488   1.9553   2.0464   2.0526   2.0705   2.0716
     2.1185   2.1240   2.1342   2.1424   2.1541   2.1566   2.1664   2.2225
     2.2385   2.2498   2.2845   2.2859   2.3094   2.3122   2.3134   2.3163
     2.3535   2.4495   2.4545   2.4578   2.5244   2.5254   2.7437   2.7901
     2.8318   2.8366   2.8508   2.8517   2.8681   2.8713   2.9336   2.9660
     2.9816   2.9820   3.0849   3.1066   3.1075   3.1323   3.1336   3.2260

          k =-0.5000-1.6243 0.0000 (120890 PWs)   bands (ev):

   -65.9090 -65.9075 -65.9073 -65.9060 -65.9057 -65.9040 -65.8409 -65.8398
   -65.8393 -65.8374 -65.8364 -65.8361 -65.8343 -65.8329 -65.8325 -65.8314
   -65.8299 -65.8297 -65.7693 -65.7687 -65.7679 -65.7676 -65.7670 -65.7665
   -39.8859 -39.8845 -39.8814 -39.8811 -39.8791 -39.8789 -39.8332 -39.8316
   -39.8296 -39.8290 -39.8271 -39.8264 -39.8169 -39.8149 -39.8126 -39.8122
   -39.8097 -39.8094 -39.7576 -39.7571 -39.7451 -39.7343 -39.7341 -39.7321
   -39.7317 -39.7299 -39.7295 -39.7272 -39.7263 -39.7215 -39.7159 -39.7155
   -39.7079 -39.7067 -39.6740 -39.6738 -39.6690 -39.6629 -39.6618 -39.6593
   -39.6591 -39.6532 -39.6528 -39.6526 -39.6506 -39.6500 -39.6404 -39.6289
   -39.6285 -39.6273 -39.6267 -39.6258 -39.6256 -39.6088 -39.6010 -39.6009
   -39.6003 -39.6002 -39.5980 -39.5977 -39.5815 -39.5810 -39.5782 -39.5664
   -39.5603 -39.5596 -39.5492 -39.5486 -39.5453 -39.5447 -39.5179 -39.5171
   -19.9700 -19.9666 -19.7337 -19.6944 -19.4793 -19.4738 -19.3500 -19.3348
   -19.0916 -19.0916 -18.9807 -18.9807 -18.9739 -18.9722 -18.9317 -18.9298
   -18.8435 -18.8429 -18.8365 -18.8354 -18.7997 -18.7982 -18.7270 -18.7261
   -18.4600 -18.4305 -18.3543 -18.3528 -18.3398 -18.3388 -18.3229 -18.2915
   -18.2828 -18.2827 -18.2494 -18.2488 -18.2371 -18.2360 -18.2182 -18.2081
   -18.1936 -18.1922 -18.1783 -18.1772 -18.1513 -18.1510 -18.1465 -18.0652
   -18.0543 -18.0538 -18.0446 -18.0341 -17.7000 -17.6907 -17.6865 -17.6861
   -17.6816 -17.6694 -17.6678 -17.6676 -17.6224 -17.6204 -17.6020 -17.6010
   -17.5349 -17.5345 -17.5323 -17.5313 -17.5181 -17.5083 -17.5079 -17.4933
   -17.4492 -17.4369 -17.4286 -17.4279 -17.4111 -17.4105 -17.2807 -17.2780
   -17.2145 -17.2144 -16.9628 -16.9628 -16.4305 -16.4302 -16.2257 -16.2256
   -16.1829 -16.1825 -15.9750 -15.9747 -15.0954 -15.0954 -15.0851 -15.0850
   -14.8583 -14.8571 -14.8468 -14.8383 -14.8366 -14.7326 -14.7319 -14.6131
   -14.4936 -14.4928 -13.8531 -13.6149 -13.4573 -13.4562 -13.2190 -13.2187
   -12.1982 -12.1981 -12.0551 -12.0550 -12.0061 -12.0059 -11.9613 -11.9598
   -11.8256 -11.8241 -11.7611 -11.7610 -11.0956 -11.0956 -10.9826 -10.9825
   -10.8615 -10.8614 -10.7476 -10.7475  -9.9856  -9.9846  -9.9140  -9.9139
    -9.7575  -9.7544  -9.7059  -9.7059  -9.6836  -9.6836  -9.4709  -9.4701
    -8.9835  -8.9834  -8.7551  -8.7549  -8.4994  -8.4989  -8.3749  -8.3748
    -8.2672  -8.2668  -8.1809  -8.1719  -8.1457  -8.1387  -7.4836  -7.4344
    -7.1799  -7.1706  -7.1704  -7.1199  -7.1194  -7.0223  -7.0222  -6.9893
    -6.9890  -6.9700  -6.9694  -6.9516  -6.9395  -6.9385  -6.8955  -6.8951
    -6.8789  -6.8789  -6.7774  -6.7770  -6.7505  -6.7483  -6.6757  -6.6755
    -6.6738  -6.6667  -6.6510  -6.6498  -6.6020  -6.5945  -6.5575  -6.5565
    -6.5189  -6.5188  -6.4848  -6.4840  -6.4434  -6.4431  -6.3261  -6.3260
    -6.3027  -6.2941  -6.2726  -6.2719  -6.1712  -6.1618  -6.1538  -6.1525
    -6.1082  -6.0521  -5.9911  -5.9362  -5.9339  -5.9265  -5.9221  -5.8858
    -5.8676  -5.8675  -5.8497  -5.8192  -5.8179  -5.7705  -5.7692  -5.7580
    -5.7566  -5.7348  -5.6862  -5.6466  -5.6411  -5.6398  -5.6286  -5.6259
    -5.6022  -5.5996  -5.5708  -5.5692  -5.5506  -5.5224  -5.5115  -5.5106
    -5.3984  -5.3682  -5.3650  -5.3633  -5.3396  -5.3388  -5.3009  -5.2940
    -5.2902  -5.2805  -5.2135  -5.2101  -5.1246  -5.1216  -5.0661  -5.0654
    -4.9976  -4.9946  -4.9939  -4.9649  -4.9635  -4.9518  -4.9037  -4.8651
    -4.8612  -4.8407  -4.8386  -4.8307  -4.8183  -4.8126  -4.7397  -4.7393
    -4.7205  -4.7191  -4.5956  -4.5943  -4.5787  -4.5423  -4.5006  -4.4981
    -4.4978  -4.4938  -4.4797  -4.4593  -4.4354  -4.4328  -4.3079  -4.2958
    -4.2867  -4.2608  -4.2551  -4.2547  -4.2310  -4.2291  -4.2127  -4.1915
    -4.1894  -4.1433  -4.1416  -4.1403  -4.1401  -4.1355  -4.1307  -4.1294
    -4.0766  -4.0739  -4.0255  -4.0112  -4.0104  -3.9905  -3.9900  -3.9805
    -3.9724  -3.9703  -3.9319  -3.9034  -3.8688  -3.8670  -3.8623  -3.8618
    -3.8212  -3.8192  -3.8083  -3.8076  -3.8063  -3.7819  -3.7801  -3.7763
    -3.7762  -3.7654  -3.7250  -3.7231  -3.7039  -3.6794  -3.6544  -3.6517
    -3.6127  -3.6030  -3.6021  -3.5787  -3.5398  -3.5317  -3.5104  -3.4962
    -3.4606  -3.4484  -3.4404  -3.4145  -3.4118  -3.3450  -3.3098  -3.2946
    -3.2874  -3.2760  -3.2552  -3.2523  -3.2314  -3.2292  -3.1866  -3.1820
    -3.1815  -3.1774  -3.1506  -3.1483  -3.1329  -3.0870  -3.0440  -2.9995
    -2.8799  -2.8779  -2.8768  -2.8754  -2.8606  -2.8578  -2.8118  -2.7862
    -2.7811  -2.7684  -2.7099  -2.7069  -2.6857  -2.6833  -2.6753  -2.6660
    -2.6624  -2.6186  -2.6150  -2.5955  -2.5944  -2.5924  -2.5865  -2.5790
    -2.5783  -2.5726  -2.5669  -2.5667  -2.5603  -2.5562  -2.5418  -2.5393
    -2.5379  -2.5249  -2.5198  -2.4265  -2.3937  -2.3863  -2.3380  -2.2272
    -2.2245  -2.2015  -2.1987  -2.1592  -2.1562  -2.1392  -2.1372  -2.1199
    -2.1188  -2.1064  -2.0787  -2.0749  -2.0601  -2.0578  -2.0135  -2.0118
     0.0458   0.0480   0.0789   0.2188   0.4557   0.4632   0.5317   0.5339
     0.6120   0.6178   0.6511   0.6521   1.0007   1.0020   1.1404   1.1426
     1.1668   1.1692   1.1915   1.2160   1.2178   1.2721   1.3186   1.3192
     1.3339   1.3454   1.3466   1.3492   1.3659   1.3738   1.3844   1.3845
     1.4866   1.5010   1.5604   1.5728   1.6202   1.6259   1.6674   1.6733
     1.6815   1.6878   1.6941   1.7016   1.7056   1.7062   1.7233   1.7328
     1.7351   1.7389   1.7483   1.7564   1.7641   1.8027   1.8050   1.8278
     1.8290   1.8372   1.8389   1.8929   1.8946   1.9622   1.9675   1.9825
     1.9882   2.0390   2.0709   2.0714   2.1084   2.1215   2.1266   2.1289
     2.2130   2.2154   2.3459   2.3508   2.3517   2.3538   2.5413   2.5425
     2.6378   2.6473   2.6627   2.6655   2.6792   2.6936   2.7599   2.7638
     2.7800   2.8025   2.8429   2.9058   2.9118   2.9283   2.9364   2.9621
     2.9691   2.9782   2.9810   2.9922   3.0091   3.0161   3.0237   3.0335

     the Fermi energy is    -0.6782 ev

!    total energy              =   -9449.96553529 Ry
     Harris-Foulkes estimate   =   -9449.96553443 Ry
     estimated scf accuracy    <       0.00000048 Ry

     total all-electron energy =    -61728.475704 Ry

     The total energy is the sum of the following terms:

     one-electron contribution =  -93470.00495265 Ry
     hartree contribution      =   46951.38787068 Ry
     xc contribution           =   -1391.79955858 Ry
     ewald contribution        =   41359.32935426 Ry
     one-center paw contrib.   =   -2897.51947728 Ry
     smearing contrib. (-TS)   =      -1.35877172 Ry

     convergence has been achieved in  29 iterations

     negative rho (up, down):  5.605E-02 0.000E+00

     Forces acting on atoms (cartesian axes, Ry/au):

     atom    1 type  1   force =     0.00039921    0.00013251    0.00019189
     atom    2 type  1   force =     0.00021506    0.00026102    0.00020455
     atom    3 type  1   force =     0.00045494    0.00034407    0.00027074
     atom    4 type  1   force =    -0.00004676   -0.00047992    0.00007114
     atom    5 type  1   force =     0.00019200   -0.00038777    0.00048668
     atom    6 type  1   force =     0.00011708   -0.00015675   -0.00063145
     atom    7 type  1   force =    -0.00006015    0.00070206    0.00016407
     atom    8 type  1   force =    -0.00016719    0.00029025    0.00032204
     atom    9 type  1   force =    -0.00014840    0.00020214    0.00021412
     atom   10 type  1   force =    -0.00020458   -0.00038568    0.00030565
     atom   11 type  1   force =    -0.00026706   -0.00003379    0.00039145
     atom   12 type  1   force =    -0.00033617   -0.00038170    0.00036345
     atom   13 type  1   force =     0.00007999    0.00025077    0.00056714
     atom   14 type  1   force =     0.00014060    0.00026951    0.00080327
     atom   15 type  1   force =     0.00012860    0.00036176    0.00063642
     atom   16 type  1   force =    -0.00004813   -0.00036367   -0.00089247
     atom   17 type  1   force =    -0.00005131   -0.00028364   -0.00097768
     atom   18 type  1   force =    -0.00007083   -0.00019577   -0.00053495
     atom   19 type  1   force =     0.00006992    0.00052671   -0.00112327
     atom   20 type  1   force =     0.00004268    0.00023119   -0.00062837
     atom   21 type  1   force =    -0.00008720    0.00034663   -0.00106639
     atom   22 type  1   force =    -0.00013736   -0.00027455    0.00054145
     atom   23 type  1   force =    -0.00008974   -0.00027245    0.00092845
     atom   24 type  1   force =    -0.00022522   -0.00039585    0.00059557
     atom   25 type  2   force =     0.00032668   -0.00064200   -0.00023622
     atom   26 type  2   force =     0.00061420   -0.00044921   -0.00036560
     atom   27 type  2   force =     0.00046868   -0.00031729   -0.00052184
     atom   28 type  2   force =    -0.00009311    0.00002790    0.00047550
     atom   29 type  2   force =    -0.00018885    0.00001745    0.00048239
     atom   30 type  2   force =     0.00001380    0.00029269    0.00026517
     atom   31 type  2   force =     0.00012523   -0.00010690    0.00034908
     atom   32 type  2   force =     0.00007841    0.00008498    0.00066582
     atom   33 type  2   force =    -0.00001297   -0.00029675    0.00039989
     atom   34 type  2   force =    -0.00049515    0.00071184   -0.00054441
     atom   35 type  2   force =    -0.00041177    0.00049292   -0.00046620
     atom   36 type  2   force =    -0.00073171    0.00040270   -0.00070942
     atom   37 type  2   force =    -0.00055021    0.00022126   -0.00059272
     atom   38 type  2   force =    -0.00048827    0.00004618   -0.00047041
     atom   39 type  2   force =    -0.00041632    0.00029568   -0.00033328
     atom   40 type  2   force =     0.00022516    0.00032485    0.00081632
     atom   41 type  2   force =    -0.00000976    0.00017609    0.00021430
     atom   42 type  2   force =     0.00015223    0.00014879    0.00101945
     atom   43 type  2   force =    -0.00012671   -0.00052698    0.00087573
     atom   44 type  2   force =    -0.00003235   -0.00039791    0.00084611
     atom   45 type  2   force =    -0.00019740   -0.00012949    0.00085756
     atom   46 type  2   force =    -0.00006551    0.00001170    0.00019319
     atom   47 type  2   force =    -0.00011304   -0.00011277    0.00013811
     atom   48 type  2   force =     0.00011831   -0.00002296    0.00055044
     atom   49 type  2   force =     0.00007416   -0.00009956   -0.00080286
     atom   50 type  2   force =    -0.00021926   -0.00013141   -0.00070262
     atom   51 type  2   force =     0.00010136    0.00009528   -0.00077491
     atom   52 type  2   force =     0.00058175    0.00005371   -0.00030980
     atom   53 type  2   force =     0.00051884   -0.00017176   -0.00077853
     atom   54 type  2   force =     0.00061591   -0.00039375   -0.00054629
     atom   55 type  2   force =     0.00038112   -0.00040148    0.00089341
     atom   56 type  2   force =     0.00031387   -0.00043964    0.00099727
     atom   57 type  2   force =     0.00034825   -0.00041764    0.00093031
     atom   58 type  2   force =    -0.00016210    0.00016302   -0.00013889
     atom   59 type  2   force =    -0.00033136    0.00026166   -0.00007688
     atom   60 type  2   force =    -0.00009226    0.00027275   -0.00016820
     atom   61 type  2   force =     0.00035325   -0.00019261   -0.00008639
     atom   62 type  2   force =     0.00030359   -0.00016821   -0.00004342
     atom   63 type  2   force =     0.00008197   -0.00035592   -0.00019734
     atom   64 type  2   force =    -0.00031497    0.00055702    0.00082318
     atom   65 type  2   force =    -0.00037288    0.00031646    0.00078283
     atom   66 type  2   force =    -0.00041255    0.00042393    0.00094895
     atom   67 type  2   force =    -0.00008107    0.00016733   -0.00040911
     atom   68 type  2   force =    -0.00038946    0.00037039   -0.00027286
     atom   69 type  2   force =    -0.00043400    0.00019269   -0.00049640
     atom   70 type  2   force =    -0.00066327    0.00026764    0.00092995
     atom   71 type  2   force =    -0.00072431    0.00072800    0.00001857
     atom   72 type  2   force =    -0.00052847    0.00029901    0.00087961
     atom   73 type  2   force =     0.00060127   -0.00051546    0.00076168
     atom   74 type  2   force =     0.00064893   -0.00029369    0.00064306
     atom   75 type  2   force =     0.00083030   -0.00072838    0.00015829
     atom   76 type  2   force =     0.00002739    0.00006730   -0.00007016
     atom   77 type  2   force =    -0.00000989    0.00003341   -0.00001727
     atom   78 type  2   force =    -0.00013907   -0.00006117   -0.00020557
     atom   79 type  2   force =    -0.00002509   -0.00000705   -0.00013110
     atom   80 type  2   force =     0.00009701   -0.00001418    0.00031616
     atom   81 type  2   force =     0.00002719    0.00003890   -0.00004465
     atom   82 type  2   force =     0.00033988   -0.00035062   -0.00066132
     atom   83 type  2   force =     0.00028780   -0.00039269   -0.00047065
     atom   84 type  2   force =     0.00034540   -0.00019097   -0.00047369
     atom   85 type  3   force =    -0.00009696    0.00022962    0.00002395
     atom   86 type  3   force =    -0.00002938   -0.00037998    0.00010310
     atom   87 type  3   force =     0.00003001   -0.00028576    0.00001660
     atom   88 type  3   force =     0.00012284   -0.00003754   -0.00038685
     atom   89 type  3   force =    -0.00000537   -0.00049940   -0.00053964
     atom   90 type  3   force =     0.00023171   -0.00036437    0.00004737
     atom   91 type  3   force =     0.00019985   -0.00013107    0.00006119
     atom   92 type  3   force =     0.00016819    0.00016128    0.00022649
     atom   93 type  3   force =    -0.00003108   -0.00018439   -0.00023664
     atom   94 type  3   force =    -0.00022387   -0.00043991   -0.00023977
     atom   95 type  3   force =     0.00016291   -0.00016293   -0.00023399
     atom   96 type  3   force =     0.00031565   -0.00000943   -0.00019711
     atom   97 type  3   force =     0.00034353   -0.00003466    0.00021184
     atom   98 type  3   force =     0.00037547   -0.00018936    0.00022192
     atom   99 type  3   force =    -0.00013332   -0.00038881   -0.00007277
     atom  100 type  3   force =     0.00007431   -0.00024742   -0.00002621
     atom  101 type  3   force =     0.00009998   -0.00004732   -0.00031200
     atom  102 type  3   force =     0.00026971   -0.00001316   -0.00010567
     atom  103 type  3   force =     0.00013397   -0.00022863    0.00008251
     atom  104 type  3   force =     0.00006310   -0.00011510    0.00010729
     atom  105 type  3   force =     0.00009937    0.00003289   -0.00015044
     atom  106 type  3   force =     0.00035151    0.00014153   -0.00023537
     atom  107 type  3   force =     0.00019195   -0.00019012    0.00022070
     atom  108 type  3   force =    -0.00012179    0.00012741    0.00003311
     atom  109 type  3   force =    -0.00018985    0.00003389    0.00002447
     atom  110 type  3   force =     0.00025112    0.00030617   -0.00011206
     atom  111 type  3   force =    -0.00014316    0.00040054    0.00005938
     atom  112 type  3   force =     0.00001234    0.00027648   -0.00020144
     atom  113 type  3   force =    -0.00033291   -0.00004945   -0.00024034
     atom  114 type  3   force =     0.00002919    0.00053741   -0.00031687
     atom  115 type  3   force =    -0.00009467    0.00022107    0.00020957
     atom  116 type  3   force =     0.00024010    0.00015608   -0.00021304
     atom  117 type  3   force =    -0.00004490   -0.00028538    0.00035469
     atom  118 type  3   force =    -0.00035481   -0.00005622   -0.00012288
     atom  119 type  3   force =    -0.00011542    0.00058906   -0.00042041
     atom  120 type  3   force =     0.00005072   -0.00005738   -0.00028369
     atom  121 type  3   force =    -0.00017000   -0.00013041    0.00015404
     atom  122 type  3   force =    -0.00037633   -0.00002075    0.00022683
     atom  123 type  3   force =     0.00002550    0.00021422    0.00002695
     atom  124 type  3   force =     0.00004762    0.00004064   -0.00016095
     atom  125 type  3   force =     0.00015833   -0.00030366   -0.00002545
     atom  126 type  3   force =    -0.00023295    0.00010307    0.00014000
     atom  127 type  3   force =    -0.00025796    0.00015417   -0.00001412
     atom  128 type  3   force =    -0.00009142   -0.00013176   -0.00024506
     atom  129 type  3   force =    -0.00023508    0.00057033    0.00029077
     atom  130 type  3   force =    -0.00012832    0.00026237   -0.00036676
     atom  131 type  3   force =    -0.00010548    0.00014379   -0.00000299
     atom  132 type  3   force =    -0.00009833   -0.00013916    0.00001015
     atom  133 type  3   force =     0.00006976   -0.00034859   -0.00040394
     atom  134 type  3   force =    -0.00022047   -0.00019289   -0.00020994
     atom  135 type  3   force =    -0.00002895   -0.00002036   -0.00040463
     atom  136 type  3   force =    -0.00010392    0.00014912   -0.00048484
     atom  137 type  3   force =     0.00016577    0.00028720   -0.00036359
     atom  138 type  3   force =    -0.00019090    0.00027916   -0.00020373
     atom  139 type  3   force =     0.00004869    0.00031253   -0.00035814
     atom  140 type  3   force =    -0.00028706   -0.00000494   -0.00038638
     atom  141 type  3   force =     0.00010288    0.00009484    0.00042053
     atom  142 type  3   force =     0.00031878   -0.00003154    0.00024811
     atom  143 type  3   force =    -0.00000804   -0.00014383   -0.00011762
     atom  144 type  3   force =     0.00001065   -0.00004781   -0.00030478
     atom  145 type  3   force =     0.00001304   -0.00013413    0.00033099
     atom  146 type  3   force =     0.00016130    0.00010333    0.00056765
     atom  147 type  3   force =     0.00034004    0.00026169    0.00030553
     atom  148 type  3   force =    -0.00000836    0.00024666   -0.00009287
     atom  149 type  3   force =     0.00016699    0.00047658    0.00021907
     atom  150 type  3   force =    -0.00011155    0.00031895    0.00041406
     atom  151 type  3   force =     0.00002273    0.00006331   -0.00042144
     atom  152 type  3   force =    -0.00018346   -0.00005088   -0.00000157
     atom  153 type  3   force =    -0.00011187   -0.00024636   -0.00057137
     atom  154 type  3   force =     0.00000087   -0.00002435    0.00036518
     atom  155 type  3   force =    -0.00007589    0.00025264   -0.00021706
     atom  156 type  3   force =     0.00014888    0.00017056   -0.00000540
     atom  157 type  3   force =    -0.00005653    0.00031856   -0.00043209
     atom  158 type  3   force =     0.00010184    0.00024404   -0.00035457
     atom  159 type  3   force =     0.00003092    0.00000722   -0.00026656
     atom  160 type  3   force =     0.00032178   -0.00012811   -0.00053735
     atom  161 type  3   force =    -0.00000985   -0.00024725   -0.00045703
     atom  162 type  3   force =    -0.00006895   -0.00016831   -0.00040919
     atom  163 type  3   force =     0.00004776   -0.00005699    0.00011155
     atom  164 type  3   force =    -0.00027212   -0.00016975   -0.00004584
     atom  165 type  3   force =     0.00000114   -0.00010674   -0.00038706
     atom  166 type  3   force =    -0.00033412    0.00008691    0.00051634
     atom  167 type  3   force =    -0.00024845    0.00015590    0.00015464
     atom  168 type  3   force =    -0.00018882    0.00016225    0.00002094
     atom  169 type  3   force =     0.00017317   -0.00003483    0.00033495
     atom  170 type  3   force =    -0.00020784   -0.00028124    0.00050358
     atom  171 type  3   force =    -0.00012859   -0.00028806    0.00020011
     atom  172 type  3   force =    -0.00021103   -0.00033634   -0.00014057
     atom  173 type  3   force =     0.00001343   -0.00041329    0.00024348
     atom  174 type  3   force =     0.00006516    0.00014666   -0.00039064
     atom  175 type  3   force =     0.00022003    0.00025231   -0.00047137
     atom  176 type  3   force =     0.00000671   -0.00003448   -0.00022433

     Total force =     0.007905     Total SCF correction =     0.002096
     SCF correction compared to forces is large: reduce conv_thr to get better values

     BFGS Geometry Optimization

     bfgs converged in   1 scf cycles and   0 bfgs steps
     (criteria: energy <  1.0E-04 Ry, force <  1.0E-02 Ry/Bohr)

     End of BFGS Geometry Optimization

     Final energy   =   -9449.9655352880 Ry
Begin final coordinates

ATOMIC_POSITIONS (angstrom)
V        3.772301013   1.360385458   7.792558119
V        8.861483358   6.360879133   7.820940634
V        6.322362932   3.860420602   7.806356318
V       -4.301767333   6.032670619   9.053524349
V        9.142613134   3.531439174   9.056828793
V        6.594238837   1.030801649   9.049918617
V       -1.752882687   3.899640709   9.053446560
V       11.697573120   1.407878254   9.042235005
V        0.797701146   6.408638788   9.057531112
V        1.070742568   3.583513681   7.810112851
V       14.524589605   1.072657559   7.802942300
V        3.615812711   6.068792659   7.802621618
V        3.718190195   1.375616504  12.536570503
V        8.815611959   6.368602279  12.533805438
V        6.266748225   3.870241447  12.531797450
V       -4.414382792   6.113726695  14.007388517
V        9.030533750   3.614340142  14.007121727
V        6.483340105   1.118814754  14.009404363
V       -1.639688734   3.826143697  14.005879557
V       11.806869535   1.326194053  14.011188710
V        0.907769587   6.323511671  14.003999334
V        1.122778205   3.569477023  12.532559496
V       14.569844229   1.071242187  12.532733166
V        3.673064585   6.069583934  12.530441130
O       -5.648796589   7.389698789   8.390765995
O        7.792893654   4.887991514   8.405760592
O        5.249416877   2.386727547   8.379144699
O        5.107959274   0.018985628   8.485678634
O       10.199364554   5.020005444   8.503095778
O        7.654363861   2.517428695   8.500978915
O       -0.262052704   4.918609761   8.516630904
O       13.185742882   2.417145778   8.475187631
O        2.283380478   7.418746741   8.487001694
O       -0.402294640   2.548507992   8.387936122
O       13.040701662   0.048122786   8.375190229
O        2.144811634   5.046680412   8.410762489
O        0.983164295   3.669268925   6.194788336
O       14.472165215   1.118756243   6.184616869
O        3.524080606   6.113773367   6.185697367
O       -1.860094523   4.000725968  10.657017638
O       11.610005418   1.522375863  10.646360070
O        0.704691592   6.536452961  10.659867543
O       -4.201570019   5.928294176  10.657212583
O        9.241820457   3.414044583  10.659735745
O        6.684971352   0.912974994  10.653358029
O       -3.027845930   4.965098198   8.341387372
O       10.420104464   2.473956908   8.335375767
O       -0.480940080   7.464061110   8.333684032
O        2.424282916   2.471950448   8.189628359
O        7.516505285   7.466579656   8.242214325
O        4.968023762   4.964001427   8.205358515
O        3.848547543   1.288052012   6.175569672
O        8.922753525   6.300775340   6.203625704
O        6.416688924   3.806092905   6.189969114
O       -5.693099182   7.391003352  13.068315724
O        7.754394673   4.890185004  13.060712285
O        5.206254026   2.394575303  13.065712104
O        5.049095840   0.044740318  13.362948758
O       10.143456005   5.038829193  13.361522475
O        7.596296811   2.539739693  13.358870521
O       -0.206089812   4.900732963  13.355042428
O       13.240443487   2.400713337  13.364123003
O        2.342765622   7.399206291  13.359906822
O       -0.362466810   2.547849752  13.066684661
O       13.084702572   0.051000488  13.067622158
O        2.183534291   5.049784755  13.054427396
O        1.159962857   3.507010378  10.921456379
O       14.608213658   1.012592571  10.921594772
O        3.718969490   6.016693958  10.919344235
O       -1.382489769   3.591781732  15.573760999
O       12.062163575   1.080660526  15.578386709
O        1.167950375   6.075207786  15.569316647
O       -4.667554297   6.352287290  15.575459434
O        8.770713241   3.856054900  15.573630248
O        6.224683530   1.366693016  15.575607932
O       -3.027505975   4.969535671  13.881816466
O       10.419159971   2.470950005  13.891900877
O       -0.480314514   7.468207911  13.895859246
O        2.421333968   2.474164923  13.140205411
O        7.515326786   7.465918756  13.132083486
O        4.968869377   4.969380111  13.133170776
O        3.676241237   1.435480739  10.925780911
O        8.780799162   6.426895952  10.922569229
O        6.224581634   3.923497562  10.920567847
C       -1.793914697   6.297913272   3.526851333
C        2.656275371   0.432497899   3.318979497
C        1.172248688   2.388930645   3.279351723
C        0.238322992   0.107431810   3.283788536
C       -0.309736051   4.342305788   3.411654488
C       -1.246056847   2.062794360   3.346309016
C        5.459190136   7.276361000   3.298231437
C       -2.727470141   4.015945523   3.510096221
C       12.330777065   1.735002785   3.453457407
C        3.042292685   6.949800606   3.374407079
C       -4.214097362   5.974300494   3.482020464
C       10.844707907   3.692537584   3.526185456
C        9.911674836   1.409796771   3.523865674
C        0.625795046   6.622298705   3.481635025
C        9.361916725   5.646351475   3.376741970
C        8.425706032   3.367162077   3.454020105
C        7.491340055   1.086648739   3.505441524
C        6.944029850   5.320170068   3.306103996
C        6.009025346   3.039067714   3.340651637
C        5.073861709   0.759499098   3.410143607
C        4.525965037   4.995207819   3.274766664
C        3.591254115   2.713656301   3.287234911
C        2.106439998   4.669554835   3.315458292
C       -4.394785908   7.382638254   3.401244932
C        2.474556351   1.842885471   3.281937191
C       -6.811649620   7.055831153   3.309545807
C        0.990504742   3.798952971   3.317828288
C        0.055804418   1.517896748   3.290308408
C        6.762188813   6.730593303   3.286378944
C       -1.425950153   3.470693632   3.429615654
C       13.630435156   1.191910039   3.355154081
C        4.343502801   6.405727552   3.299552010
C       -2.911292765   5.427413899   3.527343211
C       12.148198970   3.144995833   3.518499780
C       11.213952298   0.863225948   3.463205306
C       -5.331085210   5.102883112   3.471776199
C        9.727584091   2.821397833   3.521250400
C        8.794641327   0.539070026   3.525595317
C        8.245636590   4.775762528   3.374007625
C        7.309304078   2.495750210   3.436688659
C        6.374192459   0.215265699   3.496036666
C        5.827764915   4.449274453   3.289780829
C        4.893729632   2.168527972   3.334053613
C        3.409027226   4.124171682   3.281460378
C        1.926316243   6.078303702   3.388497849
C       -0.491087633   5.750708296   3.491338789
C        3.816361779   1.188663050  -0.250280117
C       -0.086096011   2.818611600  -0.258303004
C       -1.568743343   4.772678049  -0.139606811
C       -2.503614508   2.492059010  -0.183235701
C       -3.053256119   6.728590270  -0.133991120
C       -3.987514536   4.447317664  -0.115617467
C       11.070904047   2.165959281  -0.125123463
C       -5.471000576   6.402328102  -0.200350111
C        9.586625391   4.121883977  -0.152526505
C        8.652073828   1.841024670  -0.121390308
C        1.398067764   0.862893209  -0.301549388
C        8.104033712   6.076000892  -0.272957626
C        7.169037132   3.795619067  -0.225371170
C        6.233801841   1.515265837  -0.174636210
C       14.971946911   0.537814571  -0.294290770
C        5.685441835   5.750575916  -0.305950431
C        4.751038659   3.469360004  -0.289414641
C       12.553900473   0.211659360  -0.233989953
C        3.266710215   5.425167349  -0.278914739
C        2.332294154   3.144156101  -0.303404112
C        1.784137953   7.379237512  -0.158790796
C        0.849080170   5.098962174  -0.209296704
C       -0.634378728   7.053787847  -0.116497695
C        1.215810203   2.273329094  -0.300912539
C       -0.267265825   4.227747896  -0.199828464
C       -1.202517336   1.947462608  -0.250259796
C       -1.750914883   6.182729246  -0.115367644
C       -2.685207108   3.901532971  -0.133917991
C       12.372699233   1.620907879  -0.174480910
C       -4.169812691   5.857655741  -0.139038062
C       10.888687895   3.576511552  -0.116778964
C        9.954426129   1.295174580  -0.121052837
C        2.699957919   0.317667792  -0.258581240
C        9.405425222   5.531365861  -0.209100741
C        8.470174484   3.251012269  -0.158923636
C       -8.070456967   7.486049263  -0.303790003
C        6.987730223   5.204989553  -0.278473266
C        6.052713484   2.924444111  -0.233989725
C        5.503279251   7.160888304  -0.289444797
C        4.569030238   4.879801874  -0.305730283
C        3.634701592   2.598571118  -0.293405542
C        3.085428951   6.834778383  -0.224966600
C        2.150333618   4.554419922  -0.272787845
C        0.667703143   6.508187062  -0.151731201
C        7.535411917   0.970025514  -0.124428709
C        5.117418475   0.644195787  -0.182712253
End final coordinates



     Writing output data file interface.save/

     init_run     :    784.50s CPU    789.54s WALL (       1 calls)
     electrons    :  36825.01s CPU  37044.35s WALL (       1 calls)
     forces       :    429.13s CPU    432.69s WALL (       1 calls)

     Called by init_run:
     wfcinit      :    751.26s CPU    754.55s WALL (       1 calls)
     potinit      :      8.79s CPU      9.39s WALL (       1 calls)
     hinit0       :      7.23s CPU      7.30s WALL (       1 calls)

     Called by electrons:
     c_bands      :  32897.72s CPU  33036.46s WALL (      29 calls)
     sum_band     :   3448.34s CPU   3486.95s WALL (      29 calls)
     v_of_rho     :    114.79s CPU    127.61s WALL (      30 calls)
     newd         :    286.35s CPU    312.45s WALL (      30 calls)
     PAW_pot      :     17.30s CPU     17.31s WALL (      30 calls)
     mix_rho      :     77.87s CPU     82.34s WALL (      29 calls)

     Called by c_bands:
     init_us_2    :     27.72s CPU     27.86s WALL (     240 calls)
     cegterg      :  32849.45s CPU  32987.65s WALL (     116 calls)

     Called by sum_band:
     sum_band:bec :      2.36s CPU      2.37s WALL (     116 calls)
     addusdens    :    323.06s CPU    345.73s WALL (      29 calls)

     Called by *egterg:
     h_psi        :  13701.35s CPU  13775.02s WALL (     770 calls)
     s_psi        :   6175.93s CPU   6187.30s WALL (     770 calls)
     g_psi        :      2.39s CPU      2.40s WALL (     650 calls)
     cdiaghg      :   1447.80s CPU   1461.42s WALL (     766 calls)

     Called by h_psi:
     h_psi:pot    :  13696.65s CPU  13762.85s WALL (     770 calls)
     h_psi:calbec :   6540.65s CPU   6556.23s WALL (     770 calls)
     vloc_psi     :    650.33s CPU    688.54s WALL (     770 calls)
     add_vuspsi   :   6505.66s CPU   6518.08s WALL (     770 calls)

     General routines
     calbec       :   9857.78s CPU   9881.29s WALL (     902 calls)
     fft          :    101.13s CPU    104.11s WALL (    1949 calls)
     ffts         :     35.56s CPU     38.82s WALL (    9339 calls)
     fftw         :    710.30s CPU    752.20s WALL (  392022 calls)
     interpolate  :      1.83s CPU      1.91s WALL (      30 calls)

     Parallel routines
     fft_scatt_xy :     89.07s CPU     93.05s WALL (  403310 calls)
     fft_scatt_yz :    395.09s CPU    422.96s WALL (  403310 calls)

     PWSCF        :     10h34m CPU     10h37m WALL


   This run was terminated on:   6: 1:27  11Mar2024            

=------------------------------------------------------------------------------=
   JOB DONE.
=------------------------------------------------------------------------------=
