
     Program PWSCF v.6.4.1 starts on 18May2024 at 22: 3:27 

     This program is part of the open-source Quantum ESPRESSO suite
     for quantum simulation of materials; please cite
         "P. Giannozzi et al., J. Phys.:Condens. Matter 21 395502 (2009);
         "P. Giannozzi et al., J. Phys.:Condens. Matter 29 465901 (2017);
          URL http://www.quantum-espresso.org", 
     in publications or presentations arising from this work. More details at
     http://www.quantum-espresso.org/quote

     Parallel version (MPI), running on    32 processors

     MPI processes distributed on     1 nodes
     R & G space division:  proc/nbgrp/npool/nimage =      32
     Reading input from v2o5.vc.in
Warning: card O       -0.000000000   0.048914545   0.643203052 ignored

     Current dimensions of program PWSCF are:
     Max number of different atomic species (ntypx) = 10
     Max number of k-points (npk) =  40000
     Max angular momentum in pseudopotentials (lmaxx) =  3

     IMPORTANT: XC functional enforced from input :
     Exchange-correlation      = VDW-DF ( 1  4  4  0 1 0)
     Any further DFT definition will be discarded
     Please, verify this is what you really want


     Subspace diagonalization in iterative solution of the eigenvalue problem:
     one sub-group per band group will be used
     ELPA distributed-memory algorithm (size of sub-group:  4*  4 procs)


     Parallelization info
     --------------------
     sticks:   dense  smooth     PW     G-vecs:    dense   smooth      PW
     Min          53      53     14                 4757     4757     666
     Max          54      54     15                 4772     4772     679
     Sum        1717    1717    463               152417   152417   21491



     bravais-lattice index     =            8
     lattice parameter (alat)  =       6.7676  a.u.
     unit-cell volume          =    1320.1235 (a.u.)^3
     number of atoms/cell      =           14
     number of atomic types    =            2
     number of electrons       =       112.00
     number of Kohn-Sham states=           56
     kinetic-energy cutoff     =      90.0000  Ry
     charge density cutoff     =     360.0000  Ry
     convergence threshold     =      1.0E-10
     mixing beta               =       0.7000
     number of iterations used =            8  plain     mixing
     Exchange-correlation      = VDW-DF ( 1  4  4  0 1 0)
     nstep                     =          500


     celldm(1)=   6.767583  celldm(2)=   1.308375  celldm(3)=   3.255230
     celldm(4)=   0.000000  celldm(5)=   0.000000  celldm(6)=   0.000000

     crystal axes: (cart. coord. in units of alat)
               a(1) = (   1.000000   0.000000   0.000000 )  
               a(2) = (   0.000000   1.308375   0.000000 )  
               a(3) = (   0.000000   0.000000   3.255230 )  

     reciprocal axes: (cart. coord. in units 2 pi/alat)
               b(1) = (  1.000000  0.000000  0.000000 )  
               b(2) = (  0.000000  0.764307  0.000000 )  
               b(3) = (  0.000000  0.000000  0.307198 )  


     PseudoPot. # 1 for V  read from file:
     /home/mpicuntureo/pseudos/v.nc.upf
     MD5 check sum: 40fb93c06b4f9d8c28c5ccd071294a04
     Pseudo is Norm-conserving + core correction, Zval = 13.0
     Generated using ONCVPSP code by D. R. Hamann
     Using radial grid of 1536 points,  6 beta functions with: 
                l(1) =   0
                l(2) =   0
                l(3) =   1
                l(4) =   1
                l(5) =   2
                l(6) =   2

     PseudoPot. # 2 for O  read from file:
     /home/mpicuntureo/pseudos/o.nc.upf
     MD5 check sum: 3e3f909f7470e8921608ab6b1f57bbae
     Pseudo is Norm-conserving + core correction, Zval =  6.0
     Generated using ONCVPSP code by D. R. Hamann
     Using radial grid of  936 points,  5 beta functions with: 
                l(1) =   0
                l(2) =   0
                l(3) =   1
                l(4) =   1
                l(5) =   2

     vdW kernel table read from file vdW_kernel_table
     MD5 check sum: 8c4337f4b28e1601c069d7ef7b6561bc

     atomic species   valence    mass     pseudopotential
        V             13.00    50.94150     V ( 1.00)
        O              6.00    15.99940     O ( 1.00)

      8 Sym. Ops., with inversion, found ( 4 have fractional translation)



   Cartesian axes

     site n.     atom                  positions (alat units)
         1           V   tau(   1) = (   0.0000000   0.5083212   2.1085108  )
         2           V   tau(   2) = (   0.5000000   0.8000533   2.7743339  )
         3           V   tau(   3) = (   0.5000000   0.8000533   0.4808959  )
         4           V   tau(   4) = (   0.0000000   0.5083212   1.1467190  )
         5           O   tau(   5) = (   0.5000000   0.6458297   2.2175314  )
         6           O   tau(   6) = (   0.0000000   0.6625449   2.6653133  )
         7           O   tau(   7) = (   0.0000000   0.6625449   0.5899165  )
         8           O   tau(   8) = (   0.5000000   0.6458297   1.0376984  )
         9           O   tau(   9) = (   0.0000000   0.0639985   1.1614561  )
        10           O   tau(  10) = (   0.5000000   1.2443760   0.4661588  )
        11           O   tau(  11) = (   0.5000000   1.2443760   2.7890710  )
        12           O   tau(  12) = (   0.5000000   0.6549630   0.0000000  )
        13           O   tau(  13) = (   0.0000000   0.6534115   1.6276149  )
        14           O   tau(  14) = (   0.0000000   0.0639985   2.0937737  )

     number of k points=     4
                       cart. coord. in units 2pi/alat
        k(    1) = (   0.0000000   0.0000000   0.0000000), wk =   0.2222222
        k(    2) = (   0.0000000   0.2547691   0.0000000), wk =   0.4444444
        k(    3) = (   0.3333333   0.0000000   0.0000000), wk =   0.4444444
        k(    4) = (   0.3333333   0.2547691   0.0000000), wk =   0.8888889

     Dense  grid:   152417 G-vectors     FFT dimensions: (  48,  54, 144)

     Estimated max dynamical RAM per process >      18.33 MB

     Estimated total dynamical RAM >     586.43 MB

     Initial potential from superposition of free atoms

     starting charge  111.99579, renormalised to  112.00000


     %%%%%%%%%%%%%%%%%%%%%%%%%%%%%%%%%%%%%%%%%%%%%%%%%%%%%%%%%%%%%%%%%%%%%%%%
     %                                                                      %
     % You are using vdW-DF, which was implemented by the Thonhauser group. %
     % Please cite the following two papers that made this development      %
     % possible and the two reviews that describe the various versions:     %
     %                                                                      %
     %   T. Thonhauser et al., PRL 115, 136402 (2015).                      %
     %   T. Thonhauser et al., PRB 76, 125112 (2007).                       %
     %   K. Berland et al., Rep. Prog. Phys. 78, 066501 (2015).             %
     %   D.C. Langreth et al., J. Phys.: Condens. Matter 21, 084203 (2009). %
     %                                                                      %
     %                                                                      %
     % If you are calculating the stress with vdW-DF, please also cite:     %
     %                                                                      %
     %   R. Sabatini et al., J. Phys.: Condens. Matter 24, 424209 (2012).   %
     %                                                                      %
     %%%%%%%%%%%%%%%%%%%%%%%%%%%%%%%%%%%%%%%%%%%%%%%%%%%%%%%%%%%%%%%%%%%%%%%%


     Starting wfcs are   80 randomized atomic wfcs

     total cpu time spent up to now is        1.5 secs

     Self-consistent Calculation

     iteration #  1     ecut=    90.00 Ry     beta= 0.70
     Davidson diagonalization with overlap
     ethr =  1.00E-02,  avg # of iterations =  2.0

     total cpu time spent up to now is        2.5 secs

     total energy              =    -920.61130532 Ry
     Harris-Foulkes estimate   =    -927.68175578 Ry
     estimated scf accuracy    <       8.84382850 Ry

     iteration #  2     ecut=    90.00 Ry     beta= 0.70
     Davidson diagonalization with overlap
     ethr =  7.90E-03,  avg # of iterations =  6.2

     total cpu time spent up to now is        4.7 secs

     total energy              =    -911.04740007 Ry
     Harris-Foulkes estimate   =    -945.51373077 Ry
     estimated scf accuracy    <     153.63566210 Ry

     iteration #  3     ecut=    90.00 Ry     beta= 0.70
     Davidson diagonalization with overlap
     ethr =  7.90E-03,  avg # of iterations =  5.8

     total cpu time spent up to now is        6.7 secs

     total energy              =    -925.70003620 Ry
     Harris-Foulkes estimate   =    -926.65818192 Ry
     estimated scf accuracy    <       3.01498825 Ry

     iteration #  4     ecut=    90.00 Ry     beta= 0.70
     Davidson diagonalization with overlap
     ethr =  2.69E-03,  avg # of iterations =  4.0

     total cpu time spent up to now is        7.8 secs

     total energy              =    -925.95805833 Ry
     Harris-Foulkes estimate   =    -926.10785722 Ry
     estimated scf accuracy    <       0.87953361 Ry

     iteration #  5     ecut=    90.00 Ry     beta= 0.70
     Davidson diagonalization with overlap
     ethr =  7.85E-04,  avg # of iterations =  3.5

     total cpu time spent up to now is        8.8 secs

     total energy              =    -925.87730089 Ry
     Harris-Foulkes estimate   =    -926.02009506 Ry
     estimated scf accuracy    <       0.47619228 Ry

     iteration #  6     ecut=    90.00 Ry     beta= 0.70
     Davidson diagonalization with overlap
     ethr =  4.25E-04,  avg # of iterations =  4.2

     total cpu time spent up to now is       10.2 secs

     total energy              =    -926.02793896 Ry
     Harris-Foulkes estimate   =    -926.04858968 Ry
     estimated scf accuracy    <       0.27322895 Ry

     iteration #  7     ecut=    90.00 Ry     beta= 0.70
     Davidson diagonalization with overlap
     ethr =  2.44E-04,  avg # of iterations =  1.0

     total cpu time spent up to now is       11.0 secs

     total energy              =    -925.98920980 Ry
     Harris-Foulkes estimate   =    -926.03042470 Ry
     estimated scf accuracy    <       0.21723142 Ry

     iteration #  8     ecut=    90.00 Ry     beta= 0.70
     Davidson diagonalization with overlap
     ethr =  1.94E-04,  avg # of iterations =  3.5

     total cpu time spent up to now is       12.1 secs

     total energy              =    -926.00530239 Ry
     Harris-Foulkes estimate   =    -926.01068248 Ry
     estimated scf accuracy    <       0.02333582 Ry

     iteration #  9     ecut=    90.00 Ry     beta= 0.70
     Davidson diagonalization with overlap
     ethr =  2.08E-05,  avg # of iterations =  5.0

     total cpu time spent up to now is       13.6 secs

     total energy              =    -926.01531378 Ry
     Harris-Foulkes estimate   =    -926.01659400 Ry
     estimated scf accuracy    <       0.00793410 Ry

     iteration # 10     ecut=    90.00 Ry     beta= 0.70
     Davidson diagonalization with overlap
     ethr =  7.08E-06,  avg # of iterations =  3.0

     total cpu time spent up to now is       14.5 secs

     total energy              =    -926.01506683 Ry
     Harris-Foulkes estimate   =    -926.01564820 Ry
     estimated scf accuracy    <       0.00399316 Ry

     iteration # 11     ecut=    90.00 Ry     beta= 0.70
     Davidson diagonalization with overlap
     ethr =  3.57E-06,  avg # of iterations =  4.0

     total cpu time spent up to now is       15.6 secs

     total energy              =    -926.01541150 Ry
     Harris-Foulkes estimate   =    -926.01547159 Ry
     estimated scf accuracy    <       0.00041313 Ry

     iteration # 12     ecut=    90.00 Ry     beta= 0.70
     Davidson diagonalization with overlap
     ethr =  3.69E-07,  avg # of iterations =  4.5

     total cpu time spent up to now is       16.9 secs

     total energy              =    -926.01557624 Ry
     Harris-Foulkes estimate   =    -926.01558379 Ry
     estimated scf accuracy    <       0.00002667 Ry

     iteration # 13     ecut=    90.00 Ry     beta= 0.70
     Davidson diagonalization with overlap
     ethr =  2.38E-08,  avg # of iterations =  5.0

     total cpu time spent up to now is       18.4 secs

     total energy              =    -926.01558404 Ry
     Harris-Foulkes estimate   =    -926.01558838 Ry
     estimated scf accuracy    <       0.00002372 Ry

     iteration # 14     ecut=    90.00 Ry     beta= 0.70
     Davidson diagonalization with overlap
     ethr =  2.12E-08,  avg # of iterations =  2.5

     total cpu time spent up to now is       19.3 secs

     total energy              =    -926.01558211 Ry
     Harris-Foulkes estimate   =    -926.01558505 Ry
     estimated scf accuracy    <       0.00001416 Ry

     iteration # 15     ecut=    90.00 Ry     beta= 0.70
     Davidson diagonalization with overlap
     ethr =  1.26E-08,  avg # of iterations =  4.0

     total cpu time spent up to now is       20.6 secs

     total energy              =    -926.01558432 Ry
     Harris-Foulkes estimate   =    -926.01558529 Ry
     estimated scf accuracy    <       0.00000340 Ry

     iteration # 16     ecut=    90.00 Ry     beta= 0.70
     Davidson diagonalization with overlap
     ethr =  3.04E-09,  avg # of iterations =  4.8

     total cpu time spent up to now is       21.7 secs

     total energy              =    -926.01558459 Ry
     Harris-Foulkes estimate   =    -926.01558466 Ry
     estimated scf accuracy    <       0.00000051 Ry

     iteration # 17     ecut=    90.00 Ry     beta= 0.70
     Davidson diagonalization with overlap
     ethr =  4.57E-10,  avg # of iterations =  4.2

     total cpu time spent up to now is       23.1 secs

     total energy              =    -926.01558478 Ry
     Harris-Foulkes estimate   =    -926.01558479 Ry
     estimated scf accuracy    <       0.00000005 Ry

     iteration # 18     ecut=    90.00 Ry     beta= 0.70
     Davidson diagonalization with overlap
     ethr =  4.22E-11,  avg # of iterations =  3.8

     total cpu time spent up to now is       24.1 secs

     total energy              =    -926.01558477 Ry
     Harris-Foulkes estimate   =    -926.01558479 Ry
     estimated scf accuracy    <       0.00000003 Ry

     iteration # 19     ecut=    90.00 Ry     beta= 0.70
     Davidson diagonalization with overlap
     ethr =  3.12E-11,  avg # of iterations =  4.0

     total cpu time spent up to now is       25.4 secs

     total energy              =    -926.01558478 Ry
     Harris-Foulkes estimate   =    -926.01558478 Ry
     estimated scf accuracy    <          6.1E-09 Ry

     iteration # 20     ecut=    90.00 Ry     beta= 0.70
     Davidson diagonalization with overlap
     ethr =  5.44E-12,  avg # of iterations =  3.8

     total cpu time spent up to now is       26.4 secs

     total energy              =    -926.01558478 Ry
     Harris-Foulkes estimate   =    -926.01558478 Ry
     estimated scf accuracy    <          5.4E-09 Ry

     iteration # 21     ecut=    90.00 Ry     beta= 0.70
     Davidson diagonalization with overlap
     ethr =  4.84E-12,  avg # of iterations =  3.0

     total cpu time spent up to now is       27.3 secs

     total energy              =    -926.01558478 Ry
     Harris-Foulkes estimate   =    -926.01558478 Ry
     estimated scf accuracy    <          1.7E-09 Ry

     iteration # 22     ecut=    90.00 Ry     beta= 0.70
     Davidson diagonalization with overlap
     ethr =  1.51E-12,  avg # of iterations =  4.5

     total cpu time spent up to now is       28.5 secs

     total energy              =    -926.01558478 Ry
     Harris-Foulkes estimate   =    -926.01558478 Ry
     estimated scf accuracy    <          9.9E-10 Ry

     iteration # 23     ecut=    90.00 Ry     beta= 0.70
     Davidson diagonalization with overlap
     ethr =  8.81E-13,  avg # of iterations =  3.8

     total cpu time spent up to now is       29.4 secs

     total energy              =    -926.01558478 Ry
     Harris-Foulkes estimate   =    -926.01558478 Ry
     estimated scf accuracy    <          4.8E-10 Ry

     iteration # 24     ecut=    90.00 Ry     beta= 0.70
     Davidson diagonalization with overlap
     ethr =  4.33E-13,  avg # of iterations =  4.0

     total cpu time spent up to now is       30.7 secs

     total energy              =    -926.01558478 Ry
     Harris-Foulkes estimate   =    -926.01558478 Ry
     estimated scf accuracy    <          1.2E-10 Ry

     iteration # 25     ecut=    90.00 Ry     beta= 0.70
     Davidson diagonalization with overlap
     ethr =  1.06E-13,  avg # of iterations =  3.2

     total cpu time spent up to now is       31.6 secs

     End of self-consistent calculation

          k = 0.0000 0.0000 0.0000 ( 19065 PWs)   bands (ev):

   -61.0224 -61.0207 -61.0134 -61.0116 -34.9994 -34.9972 -34.9898 -34.9853
   -34.9171 -34.8700 -34.8520 -34.8222 -34.8201 -34.8068 -34.7932 -34.7910
   -14.2360 -14.1224 -13.2496 -13.1064 -13.0372 -13.0302 -12.6811 -12.6757
   -12.5451 -12.5391  -1.0885  -1.0779  -1.0076  -0.9009  -0.8010  -0.3984
     0.2552   0.3452   0.5285   0.6099   0.7458   0.7887   0.9003   0.9443
     1.0056   1.0347   1.3003   1.3359   1.4350   1.4874   1.5937   1.6085
     1.8034   2.0386   2.1722   2.2004   2.3143   2.4936   2.4954   2.5858

          k = 0.0000 0.2548 0.0000 ( 18993 PWs)   bands (ev):

   -61.0224 -61.0206 -61.0134 -61.0116 -35.0001 -34.9979 -34.9913 -34.9867
   -34.9169 -34.8699 -34.8520 -34.8222 -34.8200 -34.8068 -34.7932 -34.7910
   -14.1890 -14.0833 -13.2058 -13.0891 -13.0360 -13.0150 -12.6969 -12.6723
   -12.5482 -12.5191  -1.1177  -1.1066  -1.0319  -0.9327  -0.9038  -0.5572
    -0.4183  -0.1836  -0.1425  -0.0080   0.4394   0.5655   0.6225   0.9870
     1.0917   1.3021   1.4572   1.4743   1.6126   1.6827   1.8086   1.9030
     2.1650   2.1731   2.1821   2.3512   2.4015   2.5966   2.6713   2.7526

          k = 0.3333 0.0000 0.0000 ( 19064 PWs)   bands (ev):

   -61.0187 -61.0170 -61.0142 -61.0125 -34.9940 -34.9919 -34.9882 -34.9847
   -34.9138 -34.8907 -34.8773 -34.8691 -34.8316 -34.8256 -34.8127 -34.8049
   -13.7104 -13.5828 -13.1592 -13.0014 -12.9969 -12.9886 -12.6238 -12.6236
   -12.5878 -12.5633  -1.5523  -1.4811  -0.8057  -0.7490  -0.7102  -0.3381
    -0.2456   0.1121   0.1314   0.4163   0.4295   0.4778   0.8006   0.9170
     0.9620   0.9958   1.0130   1.1000   1.2548   1.2641   1.4480   1.4907
     1.5485   1.9354   2.2323   2.3036   2.4265   2.5808   2.7700   2.7937

          k = 0.3333 0.2548 0.0000 ( 19041 PWs)   bands (ev):

   -61.0187 -61.0170 -61.0142 -61.0125 -34.9948 -34.9927 -34.9894 -34.9860
   -34.9136 -34.8906 -34.8771 -34.8690 -34.8316 -34.8256 -34.8127 -34.8049
   -13.6693 -13.5537 -13.1279 -12.9995 -12.9881 -12.9755 -12.6331 -12.6134
   -12.5587 -12.5363  -1.5508  -1.4784  -0.8432  -0.8039  -0.7814  -0.4430
    -0.3908  -0.2768  -0.1757  -0.0076   0.0600   0.2046   0.5528   0.5973
     0.6608   0.7428   0.8314   0.9294   1.0045   1.4485   1.6867   1.8551
     2.0719   2.1397   2.4513   2.6732   2.6827   2.8179   2.9024   2.9191

     highest occupied level (ev):     2.9191

!    total energy              =    -926.01558478 Ry
     Harris-Foulkes estimate   =    -926.01558478 Ry
     estimated scf accuracy    <          6.8E-11 Ry

     The total energy is the sum of the following terms:

     one-electron contribution =    -627.18383464 Ry
     hartree contribution      =     350.38436855 Ry
     xc contribution           =    -178.13940809 Ry
     ewald contribution        =    -471.07671060 Ry

     convergence has been achieved in  25 iterations

     Forces acting on atoms (cartesian axes, Ry/au):

     atom    1 type  1   force =    -0.00000000    0.00009667   -0.00016720
     atom    2 type  1   force =     0.00000000   -0.00009667    0.00016720
     atom    3 type  1   force =     0.00000000   -0.00009667   -0.00016720
     atom    4 type  1   force =    -0.00000000    0.00009667    0.00016720
     atom    5 type  2   force =    -0.00000000    0.00018626    0.00007298
     atom    6 type  2   force =     0.00000000   -0.00018626   -0.00007298
     atom    7 type  2   force =     0.00000000   -0.00018626    0.00007298
     atom    8 type  2   force =     0.00000000    0.00018626   -0.00007298
     atom    9 type  2   force =     0.00000000    0.00001504    0.00011481
     atom   10 type  2   force =     0.00000000   -0.00001504   -0.00011481
     atom   11 type  2   force =     0.00000000   -0.00001504    0.00011481
     atom   12 type  2   force =     0.00000000   -0.00021548   -0.00000000
     atom   13 type  2   force =     0.00000000    0.00021548   -0.00000000
     atom   14 type  2   force =     0.00000000    0.00001504   -0.00011481

     Total force =     0.000675     Total SCF correction =     0.000015


     Computing stress (Cartesian axis) and pressure

          total   stress  (Ry/bohr**3)                   (kbar)     P=    2.01
   0.00001345   0.00000000   0.00000000          1.98      0.00      0.00
   0.00000000   0.00001356   0.00000000          0.00      2.00      0.00
   0.00000000   0.00000000   0.00001391          0.00      0.00      2.05


     BFGS Geometry Optimization

     number of scf cycles    =   1
     number of bfgs steps    =   0

     enthalpy new            =    -926.0155847829 Ry

     new trust radius        =       0.0025268849 bohr
     new conv_thr            =            1.0E-10 Ry

     new unit-cell volume =   1321.47449 a.u.^3 (   195.82231 Ang^3 )
     density =      3.08462 g/cm^3

CELL_PARAMETERS (alat=  6.76758343)
   1.000336217   0.000000000   0.000000000
   0.000000000   1.308818114   0.000000000
   0.000000000   0.000000000   3.256361707

ATOMIC_POSITIONS (crystal)
V       -0.000000000   0.388524469   0.647722651
V        0.500000007   0.611475544   0.852277370
V        0.500000007   0.611475544   0.147722644
V       -0.000000000   0.388524469   0.352277363
O        0.500000007   0.493633274   0.681224474
O        0.000000000   0.506366740   0.818775548
O        0.000000000   0.506366740   0.181224466
O        0.500000007   0.493633274   0.318775541
O        0.000000000   0.048916243   0.356802173
O        0.500000007   0.951083771   0.143197834
O        0.500000007   0.951083771   0.856802180
O        0.500000007   0.500568605  -0.000000000
O        0.000000000   0.499431408   0.500000007
O        0.000000000   0.048916243   0.643197841



     Writing output data file v2o5.save/
     NEW-OLD atomic charge density approx. for the potential
     extrapolated charge  112.11449, renormalised to  112.00000

     total cpu time spent up to now is       34.6 secs

     Self-consistent Calculation

     iteration #  1     ecut=    90.00 Ry     beta= 0.70
     Davidson diagonalization with overlap
     ethr =  1.00E-06,  avg # of iterations =  5.0

     total cpu time spent up to now is       36.5 secs

     total energy              =    -926.01104100 Ry
     Harris-Foulkes estimate   =    -925.49005433 Ry
     estimated scf accuracy    <       0.00448301 Ry

     iteration #  2     ecut=    90.00 Ry     beta= 0.70
     Davidson diagonalization with overlap
     ethr =  4.00E-06,  avg # of iterations =  6.0

     total cpu time spent up to now is       38.5 secs

     total energy              =    -926.00506381 Ry
     Harris-Foulkes estimate   =    -926.03183735 Ry
     estimated scf accuracy    <       0.14909489 Ry

     iteration #  3     ecut=    90.00 Ry     beta= 0.70
     Davidson diagonalization with overlap
     ethr =  4.00E-06,  avg # of iterations =  5.0

     total cpu time spent up to now is       40.5 secs

     total energy              =    -926.01569052 Ry
     Harris-Foulkes estimate   =    -926.01601496 Ry
     estimated scf accuracy    <       0.00250266 Ry

     iteration #  4     ecut=    90.00 Ry     beta= 0.70
     Davidson diagonalization with overlap
     ethr =  2.23E-06,  avg # of iterations =  1.0

     total cpu time spent up to now is       41.3 secs

     total energy              =    -926.01550211 Ry
     Harris-Foulkes estimate   =    -926.01573298 Ry
     estimated scf accuracy    <       0.00179741 Ry

     iteration #  5     ecut=    90.00 Ry     beta= 0.70
     Davidson diagonalization with overlap
     ethr =  1.60E-06,  avg # of iterations =  2.0

     total cpu time spent up to now is       42.1 secs

     total energy              =    -926.01555712 Ry
     Harris-Foulkes estimate   =    -926.01555713 Ry
     estimated scf accuracy    <       0.00090181 Ry

     iteration #  6     ecut=    90.00 Ry     beta= 0.70
     Davidson diagonalization with overlap
     ethr =  8.05E-07,  avg # of iterations =  1.0

     total cpu time spent up to now is       42.7 secs

     total energy              =    -926.01558212 Ry
     Harris-Foulkes estimate   =    -926.01557919 Ry
     estimated scf accuracy    <       0.00083040 Ry

     iteration #  7     ecut=    90.00 Ry     beta= 0.70
     Davidson diagonalization with overlap
     ethr =  7.41E-07,  avg # of iterations =  1.0

     total cpu time spent up to now is       43.2 secs

     total energy              =    -926.01558887 Ry
     Harris-Foulkes estimate   =    -926.01559169 Ry
     estimated scf accuracy    <       0.00071627 Ry

     iteration #  8     ecut=    90.00 Ry     beta= 0.70
     Davidson diagonalization with overlap
     ethr =  6.40E-07,  avg # of iterations =  1.0

     total cpu time spent up to now is       43.7 secs

     total energy              =    -926.01558808 Ry
     Harris-Foulkes estimate   =    -926.01559677 Ry
     estimated scf accuracy    <       0.00063057 Ry

     iteration #  9     ecut=    90.00 Ry     beta= 0.70
     Davidson diagonalization with overlap
     ethr =  5.63E-07,  avg # of iterations =  1.0

     total cpu time spent up to now is       44.3 secs

     total energy              =    -926.01557767 Ry
     Harris-Foulkes estimate   =    -926.01559442 Ry
     estimated scf accuracy    <       0.00054290 Ry

     iteration # 10     ecut=    90.00 Ry     beta= 0.70
     Davidson diagonalization with overlap
     ethr =  4.85E-07,  avg # of iterations =  1.0

     total cpu time spent up to now is       44.8 secs

     total energy              =    -926.01549264 Ry
     Harris-Foulkes estimate   =    -926.01558419 Ry
     estimated scf accuracy    <       0.00044163 Ry

     iteration # 11     ecut=    90.00 Ry     beta= 0.70
     Davidson diagonalization with overlap
     ethr =  3.94E-07,  avg # of iterations =  4.5

     total cpu time spent up to now is       45.7 secs

     total energy              =    -926.01560500 Ry
     Harris-Foulkes estimate   =    -926.01560830 Ry
     estimated scf accuracy    <       0.00012185 Ry

     iteration # 12     ecut=    90.00 Ry     beta= 0.70
     Davidson diagonalization with overlap
     ethr =  1.09E-07,  avg # of iterations =  2.0

     total cpu time spent up to now is       46.2 secs

     total energy              =    -926.01561176 Ry
     Harris-Foulkes estimate   =    -926.01560727 Ry
     estimated scf accuracy    <       0.00011596 Ry

     iteration # 13     ecut=    90.00 Ry     beta= 0.70
     Davidson diagonalization with overlap
     ethr =  1.04E-07,  avg # of iterations =  1.0

     total cpu time spent up to now is       46.7 secs

     total energy              =    -926.01559937 Ry
     Harris-Foulkes estimate   =    -926.01561246 Ry
     estimated scf accuracy    <       0.00012700 Ry

     iteration # 14     ecut=    90.00 Ry     beta= 0.70
     Davidson diagonalization with overlap
     ethr =  1.04E-07,  avg # of iterations =  5.0

     total cpu time spent up to now is       47.8 secs

     total energy              =    -926.01557742 Ry
     Harris-Foulkes estimate   =    -926.01566409 Ry
     estimated scf accuracy    <       0.00046340 Ry

     iteration # 15     ecut=    90.00 Ry     beta= 0.70
     Davidson diagonalization with overlap
     ethr =  1.04E-07,  avg # of iterations =  4.5

     total cpu time spent up to now is       48.7 secs

     total energy              =    -926.01559554 Ry
     Harris-Foulkes estimate   =    -926.01560739 Ry
     estimated scf accuracy    <       0.00010790 Ry

     iteration # 16     ecut=    90.00 Ry     beta= 0.70
     Davidson diagonalization with overlap
     ethr =  9.63E-08,  avg # of iterations =  2.0

     total cpu time spent up to now is       49.2 secs

     total energy              =    -926.01559559 Ry
     Harris-Foulkes estimate   =    -926.01559806 Ry
     estimated scf accuracy    <       0.00007633 Ry

     iteration # 17     ecut=    90.00 Ry     beta= 0.70
     Davidson diagonalization with overlap
     ethr =  6.81E-08,  avg # of iterations =  1.0

     total cpu time spent up to now is       49.7 secs

     total energy              =    -926.01559473 Ry
     Harris-Foulkes estimate   =    -926.01559701 Ry
     estimated scf accuracy    <       0.00006304 Ry

     iteration # 18     ecut=    90.00 Ry     beta= 0.70
     Davidson diagonalization with overlap
     ethr =  5.63E-08,  avg # of iterations =  1.0

     total cpu time spent up to now is       50.3 secs

     total energy              =    -926.01558842 Ry
     Harris-Foulkes estimate   =    -926.01559590 Ry
     estimated scf accuracy    <       0.00005158 Ry

     iteration # 19     ecut=    90.00 Ry     beta= 0.70
     Davidson diagonalization with overlap
     ethr =  4.61E-08,  avg # of iterations =  4.0

     total cpu time spent up to now is       51.0 secs

     total energy              =    -926.01559362 Ry
     Harris-Foulkes estimate   =    -926.01559396 Ry
     estimated scf accuracy    <       0.00000266 Ry

     iteration # 20     ecut=    90.00 Ry     beta= 0.70
     Davidson diagonalization with overlap
     ethr =  2.38E-09,  avg # of iterations =  5.0

     total cpu time spent up to now is       52.0 secs

     total energy              =    -926.01559604 Ry
     Harris-Foulkes estimate   =    -926.01559616 Ry
     estimated scf accuracy    <       0.00000087 Ry

     iteration # 21     ecut=    90.00 Ry     beta= 0.70
     Davidson diagonalization with overlap
     ethr =  7.77E-10,  avg # of iterations =  1.8

     total cpu time spent up to now is       52.6 secs

     total energy              =    -926.01559588 Ry
     Harris-Foulkes estimate   =    -926.01559606 Ry
     estimated scf accuracy    <       0.00000055 Ry

     iteration # 22     ecut=    90.00 Ry     beta= 0.70
     Davidson diagonalization with overlap
     ethr =  4.87E-10,  avg # of iterations =  4.2

     total cpu time spent up to now is       53.7 secs

     total energy              =    -926.01559604 Ry
     Harris-Foulkes estimate   =    -926.01559612 Ry
     estimated scf accuracy    <       0.00000062 Ry

     iteration # 23     ecut=    90.00 Ry     beta= 0.70
     Davidson diagonalization with overlap
     ethr =  4.87E-10,  avg # of iterations =  1.0

     total cpu time spent up to now is       54.2 secs

     total energy              =    -926.01559595 Ry
     Harris-Foulkes estimate   =    -926.01559605 Ry
     estimated scf accuracy    <       0.00000038 Ry

     iteration # 24     ecut=    90.00 Ry     beta= 0.70
     Davidson diagonalization with overlap
     ethr =  3.36E-10,  avg # of iterations =  4.0

     total cpu time spent up to now is       55.1 secs

     total energy              =    -926.01559603 Ry
     Harris-Foulkes estimate   =    -926.01559608 Ry
     estimated scf accuracy    <       0.00000023 Ry

     iteration # 25     ecut=    90.00 Ry     beta= 0.70
     Davidson diagonalization with overlap
     ethr =  2.06E-10,  avg # of iterations =  4.0

     total cpu time spent up to now is       55.8 secs

     total energy              =    -926.01559604 Ry
     Harris-Foulkes estimate   =    -926.01559604 Ry
     estimated scf accuracy    <       0.00000002 Ry

     iteration # 26     ecut=    90.00 Ry     beta= 0.70
     Davidson diagonalization with overlap
     ethr =  1.95E-11,  avg # of iterations =  5.0

     total cpu time spent up to now is       56.8 secs

     total energy              =    -926.01559605 Ry
     Harris-Foulkes estimate   =    -926.01559606 Ry
     estimated scf accuracy    <       0.00000002 Ry

     iteration # 27     ecut=    90.00 Ry     beta= 0.70
     Davidson diagonalization with overlap
     ethr =  1.51E-11,  avg # of iterations =  2.0

     total cpu time spent up to now is       57.4 secs

     total energy              =    -926.01559605 Ry
     Harris-Foulkes estimate   =    -926.01559605 Ry
     estimated scf accuracy    <          6.3E-09 Ry

     iteration # 28     ecut=    90.00 Ry     beta= 0.70
     Davidson diagonalization with overlap
     ethr =  5.60E-12,  avg # of iterations =  4.8

     total cpu time spent up to now is       58.2 secs

     total energy              =    -926.01559605 Ry
     Harris-Foulkes estimate   =    -926.01559605 Ry
     estimated scf accuracy    <          1.3E-10 Ry

     iteration # 29     ecut=    90.00 Ry     beta= 0.70
     Davidson diagonalization with overlap
     ethr =  1.15E-13,  avg # of iterations =  5.0

     total cpu time spent up to now is       59.3 secs

     End of self-consistent calculation

          k = 0.0000 0.0000 0.0000 ( 19065 PWs)   bands (ev):

   -61.0357 -61.0340 -61.0267 -61.0250 -35.0111 -35.0089 -35.0015 -34.9970
   -34.9298 -34.8830 -34.8650 -34.8353 -34.8331 -34.8200 -34.8063 -34.8042
   -14.2427 -14.1292 -13.2587 -13.1143 -13.0455 -13.0400 -12.6913 -12.6858
   -12.5556 -12.5496  -1.0954  -1.0848  -1.0146  -0.9070  -0.8093  -0.4062
     0.2480   0.3381   0.5211   0.6022   0.7375   0.7803   0.8905   0.9346
     0.9955   1.0245   1.2917   1.3273   1.4259   1.4787   1.5845   1.5990
     1.7944   2.0289   2.1618   2.1899   2.3049   2.4837   2.4857   2.5756

          k = 0.0000 0.2547 0.0000 ( 18993 PWs)   bands (ev):

   -61.0357 -61.0339 -61.0267 -61.0250 -35.0118 -35.0095 -35.0031 -34.9985
   -34.9296 -34.8828 -34.8650 -34.8352 -34.8330 -34.8200 -34.8063 -34.8042
   -14.1958 -14.0902 -13.2149 -13.0970 -13.0443 -13.0248 -12.7071 -12.6825
   -12.5588 -12.5297  -1.1245  -1.1134  -1.0388  -0.9387  -0.9112  -0.5634
    -0.4263  -0.1915  -0.1498  -0.0147   0.4304   0.5576   0.6146   0.9778
     1.0832   1.2934   1.4481   1.4640   1.6023   1.6736   1.7991   1.8932
     2.1545   2.1626   2.1723   2.3417   2.3920   2.5862   2.6612   2.7421

          k = 0.3332 0.0000 0.0000 ( 19064 PWs)   bands (ev):

   -61.0321 -61.0303 -61.0276 -61.0259 -35.0057 -35.0036 -34.9999 -34.9965
   -34.9265 -34.9035 -34.8901 -34.8819 -34.8446 -34.8387 -34.8258 -34.8181
   -13.7182 -13.5907 -13.1687 -13.0100 -13.0058 -12.9985 -12.6341 -12.6339
   -12.5983 -12.5738  -1.5584  -1.4875  -0.8136  -0.7554  -0.7187  -0.3457
    -0.2525   0.1048   0.1248   0.4095   0.4220   0.4705   0.7922   0.9086
     0.9538   0.9863   1.0034   1.0895   1.2441   1.2560   1.4390   1.4812
     1.5394   1.9260   2.2225   2.2937   2.4172   2.5708   2.7601   2.7832

          k = 0.3332 0.2547 0.0000 ( 19041 PWs)   bands (ev):

   -61.0321 -61.0303 -61.0276 -61.0258 -35.0065 -35.0044 -35.0012 -34.9977
   -34.9263 -34.9034 -34.8900 -34.8818 -34.8446 -34.8387 -34.8258 -34.8181
   -13.6771 -13.5617 -13.1373 -13.0081 -12.9971 -12.9854 -12.6434 -12.6239
   -12.5692 -12.5470  -1.5569  -1.4848  -0.8508  -0.8102  -0.7892  -0.4490
    -0.3983  -0.2833  -0.1827  -0.0149   0.0523   0.1968   0.5435   0.5894
     0.6526   0.7344   0.8225   0.9207   0.9956   1.4400   1.6773   1.8456
     2.0617   2.1295   2.4416   2.6635   2.6722   2.8075   2.8917   2.9090

     highest occupied level (ev):     2.9090

!    total energy              =    -926.01559605 Ry
     Harris-Foulkes estimate   =    -926.01559605 Ry
     estimated scf accuracy    <          3.9E-11 Ry

     The total energy is the sum of the following terms:

     one-electron contribution =    -627.41011886 Ry
     hartree contribution      =     350.45077577 Ry
     xc contribution           =    -178.13047382 Ry
     ewald contribution        =    -470.92577915 Ry

     convergence has been achieved in  29 iterations

     Forces acting on atoms (cartesian axes, Ry/au):

     atom    1 type  1   force =     0.00000000   -0.00060161   -0.00025342
     atom    2 type  1   force =     0.00000000    0.00060161    0.00025342
     atom    3 type  1   force =     0.00000000    0.00060161   -0.00025342
     atom    4 type  1   force =    -0.00000000   -0.00060161    0.00025342
     atom    5 type  2   force =    -0.00000000    0.00002814    0.00015281
     atom    6 type  2   force =     0.00000000   -0.00002814   -0.00015281
     atom    7 type  2   force =     0.00000000   -0.00002814    0.00015281
     atom    8 type  2   force =     0.00000000    0.00002814   -0.00015281
     atom    9 type  2   force =     0.00000000    0.00117447    0.00008047
     atom   10 type  2   force =    -0.00000000   -0.00117447   -0.00008047
     atom   11 type  2   force =     0.00000000   -0.00117447    0.00008047
     atom   12 type  2   force =    -0.00000000    0.00010207   -0.00000000
     atom   13 type  2   force =     0.00000000   -0.00010207    0.00000000
     atom   14 type  2   force =     0.00000000    0.00117447   -0.00008047

     Total force =     0.002714     Total SCF correction =     0.000015


     Computing stress (Cartesian axis) and pressure

          total   stress  (Ry/bohr**3)                   (kbar)     P=    0.39
   0.00000313   0.00000000   0.00000000          0.46      0.00      0.00
   0.00000000   0.00000080   0.00000000          0.00      0.12      0.00
   0.00000000   0.00000000   0.00000392          0.00      0.00      0.58


     number of scf cycles    =   2
     number of bfgs steps    =   1

     enthalpy old            =    -926.0155847829 Ry
     enthalpy new            =    -926.0155960529 Ry

     CASE: enthalpy_new < enthalpy_old

     new trust radius        =       0.0024247374 bohr
     new conv_thr            =            1.0E-12 Ry

     new unit-cell volume =   1322.62067 a.u.^3 (   195.99216 Ang^3 )
     density =      3.08195 g/cm^3

CELL_PARAMETERS (alat=  6.76758343)
   1.000638282   0.000000000   0.000000000
   0.000000000   1.309121279   0.000000000
   0.000000000   0.000000000   3.257447727

ATOMIC_POSITIONS (crystal)
V        0.000000000   0.388447060   0.647703785
V        0.500000007   0.611552953   0.852296236
V        0.500000007   0.611552953   0.147703778
V       -0.000000000   0.388447060   0.352296229
O        0.500000007   0.493650045   0.681235079
O        0.000000000   0.506349969   0.818764943
O        0.000000000   0.506349969   0.181235071
O        0.500000007   0.493650045   0.318764936
O        0.000000000   0.049081407   0.356809874
O        0.500000007   0.950918607   0.143190133
O        0.500000007   0.950918607   0.856809881
O        0.500000007   0.500568017  -0.000000000
O        0.000000000   0.499431996   0.500000007
O        0.000000000   0.049081407   0.643190140



     Writing output data file v2o5.save/
     NEW-OLD atomic charge density approx. for the potential
     extrapolated charge  112.09706, renormalised to  112.00000

     total cpu time spent up to now is       61.3 secs

     Self-consistent Calculation

     iteration #  1     ecut=    90.00 Ry     beta= 0.70
     Davidson diagonalization with overlap
     ethr =  1.00E-06,  avg # of iterations =  4.8

     total cpu time spent up to now is       62.6 secs

     total energy              =    -926.01252183 Ry
     Harris-Foulkes estimate   =    -925.56976987 Ry
     estimated scf accuracy    <       0.00298777 Ry

     iteration #  2     ecut=    90.00 Ry     beta= 0.70
     Davidson diagonalization with overlap
     ethr =  2.67E-06,  avg # of iterations =  5.8

     total cpu time spent up to now is       63.9 secs

     total energy              =    -926.00870952 Ry
     Harris-Foulkes estimate   =    -926.02650865 Ry
     estimated scf accuracy    <       0.09884525 Ry

     iteration #  3     ecut=    90.00 Ry     beta= 0.70
     Davidson diagonalization with overlap
     ethr =  2.67E-06,  avg # of iterations =  5.0

     total cpu time spent up to now is       65.2 secs

     total energy              =    -926.01567608 Ry
     Harris-Foulkes estimate   =    -926.01590428 Ry
     estimated scf accuracy    <       0.00184518 Ry

     iteration #  4     ecut=    90.00 Ry     beta= 0.70
     Davidson diagonalization with overlap
     ethr =  1.65E-06,  avg # of iterations =  1.0

     total cpu time spent up to now is       65.7 secs

     total energy              =    -926.01553339 Ry
     Harris-Foulkes estimate   =    -926.01570487 Ry
     estimated scf accuracy    <       0.00134439 Ry

     iteration #  5     ecut=    90.00 Ry     beta= 0.70
     Davidson diagonalization with overlap
     ethr =  1.20E-06,  avg # of iterations =  2.0

     total cpu time spent up to now is       66.3 secs

     total energy              =    -926.01556954 Ry
     Harris-Foulkes estimate   =    -926.01557265 Ry
     estimated scf accuracy    <       0.00068222 Ry

     iteration #  6     ecut=    90.00 Ry     beta= 0.70
     Davidson diagonalization with overlap
     ethr =  6.09E-07,  avg # of iterations =  1.0

     total cpu time spent up to now is       66.8 secs

     total energy              =    -926.01558570 Ry
     Harris-Foulkes estimate   =    -926.01558552 Ry
     estimated scf accuracy    <       0.00062230 Ry

     iteration #  7     ecut=    90.00 Ry     beta= 0.70
     Davidson diagonalization with overlap
     ethr =  5.56E-07,  avg # of iterations =  1.0

     total cpu time spent up to now is       67.3 secs

     total energy              =    -926.01560498 Ry
     Harris-Foulkes estimate   =    -926.01559333 Ry
     estimated scf accuracy    <       0.00053792 Ry

     iteration #  8     ecut=    90.00 Ry     beta= 0.70
     Davidson diagonalization with overlap
     ethr =  4.80E-07,  avg # of iterations =  1.0

     total cpu time spent up to now is       67.8 secs

     total energy              =    -926.01558988 Ry
     Harris-Foulkes estimate   =    -926.01560991 Ry
     estimated scf accuracy    <       0.00051899 Ry

     iteration #  9     ecut=    90.00 Ry     beta= 0.70
     Davidson diagonalization with overlap
     ethr =  4.63E-07,  avg # of iterations =  1.0

     total cpu time spent up to now is       68.4 secs

     total energy              =    -926.01560620 Ry
     Harris-Foulkes estimate   =    -926.01559686 Ry
     estimated scf accuracy    <       0.00038535 Ry

     iteration # 10     ecut=    90.00 Ry     beta= 0.70
     Davidson diagonalization with overlap
     ethr =  3.44E-07,  avg # of iterations =  1.0

     total cpu time spent up to now is       68.9 secs

     total energy              =    -926.01536832 Ry
     Harris-Foulkes estimate   =    -926.01561077 Ry
     estimated scf accuracy    <       0.00038085 Ry

     iteration # 11     ecut=    90.00 Ry     beta= 0.70
     Davidson diagonalization with overlap
     ethr =  3.40E-07,  avg # of iterations =  5.0

     total cpu time spent up to now is       70.1 secs

     total energy              =    -926.01512029 Ry
     Harris-Foulkes estimate   =    -926.01612199 Ry
     estimated scf accuracy    <       0.00441131 Ry

     iteration # 12     ecut=    90.00 Ry     beta= 0.70
     Davidson diagonalization with overlap
     ethr =  3.40E-07,  avg # of iterations =  5.0

     total cpu time spent up to now is       71.4 secs

     total energy              =    -926.01556903 Ry
     Harris-Foulkes estimate   =    -926.01570030 Ry
     estimated scf accuracy    <       0.00059802 Ry

     iteration # 13     ecut=    90.00 Ry     beta= 0.70
     Davidson diagonalization with overlap
     ethr =  3.40E-07,  avg # of iterations =  4.0

     total cpu time spent up to now is       72.1 secs

     total energy              =    -926.01561840 Ry
     Harris-Foulkes estimate   =    -926.01560513 Ry
     estimated scf accuracy    <       0.00018636 Ry

     iteration # 14     ecut=    90.00 Ry     beta= 0.70
     Davidson diagonalization with overlap
     ethr =  1.66E-07,  avg # of iterations =  4.5

     total cpu time spent up to now is       73.3 secs

     total energy              =    -926.01549830 Ry
     Harris-Foulkes estimate   =    -926.01575765 Ry
     estimated scf accuracy    <       0.00131255 Ry

     iteration # 15     ecut=    90.00 Ry     beta= 0.70
     Davidson diagonalization with overlap
     ethr =  1.66E-07,  avg # of iterations =  4.0

     total cpu time spent up to now is       74.3 secs

     total energy              =    -926.01559562 Ry
     Harris-Foulkes estimate   =    -926.01560217 Ry
     estimated scf accuracy    <       0.00002123 Ry

     iteration # 16     ecut=    90.00 Ry     beta= 0.70
     Davidson diagonalization with overlap
     ethr =  1.90E-08,  avg # of iterations =  4.5

     total cpu time spent up to now is       75.2 secs

     total energy              =    -926.01559919 Ry
     Harris-Foulkes estimate   =    -926.01560028 Ry
     estimated scf accuracy    <       0.00000582 Ry

     iteration # 17     ecut=    90.00 Ry     beta= 0.70
     Davidson diagonalization with overlap
     ethr =  5.20E-09,  avg # of iterations =  4.0

     total cpu time spent up to now is       75.8 secs

     total energy              =    -926.01559888 Ry
     Harris-Foulkes estimate   =    -926.01559952 Ry
     estimated scf accuracy    <       0.00000212 Ry

     iteration # 18     ecut=    90.00 Ry     beta= 0.70
     Davidson diagonalization with overlap
     ethr =  1.89E-09,  avg # of iterations =  4.2

     total cpu time spent up to now is       76.8 secs

     total energy              =    -926.01559903 Ry
     Harris-Foulkes estimate   =    -926.01560061 Ry
     estimated scf accuracy    <       0.00000732 Ry

     iteration # 19     ecut=    90.00 Ry     beta= 0.70
     Davidson diagonalization with overlap
     ethr =  1.89E-09,  avg # of iterations =  4.0

     total cpu time spent up to now is       77.8 secs

     total energy              =    -926.01559973 Ry
     Harris-Foulkes estimate   =    -926.01559974 Ry
     estimated scf accuracy    <       0.00000004 Ry

     iteration # 20     ecut=    90.00 Ry     beta= 0.70
     Davidson diagonalization with overlap
     ethr =  3.95E-11,  avg # of iterations =  4.0

     total cpu time spent up to now is       78.6 secs

     total energy              =    -926.01559973 Ry
     Harris-Foulkes estimate   =    -926.01559973 Ry
     estimated scf accuracy    <       0.00000001 Ry

     iteration # 21     ecut=    90.00 Ry     beta= 0.70
     Davidson diagonalization with overlap
     ethr =  9.99E-12,  avg # of iterations =  4.8

     total cpu time spent up to now is       79.4 secs

     total energy              =    -926.01559973 Ry
     Harris-Foulkes estimate   =    -926.01559974 Ry
     estimated scf accuracy    <       0.00000001 Ry

     iteration # 22     ecut=    90.00 Ry     beta= 0.70
     Davidson diagonalization with overlap
     ethr =  9.99E-12,  avg # of iterations =  2.0

     total cpu time spent up to now is       80.0 secs

     total energy              =    -926.01559973 Ry
     Harris-Foulkes estimate   =    -926.01559973 Ry
     estimated scf accuracy    <          7.3E-09 Ry

     iteration # 23     ecut=    90.00 Ry     beta= 0.70
     Davidson diagonalization with overlap
     ethr =  6.50E-12,  avg # of iterations =  4.0

     total cpu time spent up to now is       80.8 secs

     total energy              =    -926.01559973 Ry
     Harris-Foulkes estimate   =    -926.01559973 Ry
     estimated scf accuracy    <          1.4E-09 Ry

     iteration # 24     ecut=    90.00 Ry     beta= 0.70
     Davidson diagonalization with overlap
     ethr =  1.28E-12,  avg # of iterations =  2.2

     total cpu time spent up to now is       81.4 secs

     total energy              =    -926.01559973 Ry
     Harris-Foulkes estimate   =    -926.01559973 Ry
     estimated scf accuracy    <          1.5E-09 Ry

     iteration # 25     ecut=    90.00 Ry     beta= 0.70
     Davidson diagonalization with overlap
     ethr =  1.28E-12,  avg # of iterations =  1.0

     total cpu time spent up to now is       81.9 secs

     total energy              =    -926.01559973 Ry
     Harris-Foulkes estimate   =    -926.01559973 Ry
     estimated scf accuracy    <          1.1E-09 Ry

     iteration # 26     ecut=    90.00 Ry     beta= 0.70
     Davidson diagonalization with overlap
     ethr =  9.79E-13,  avg # of iterations =  4.0

     total cpu time spent up to now is       82.7 secs

     total energy              =    -926.01559973 Ry
     Harris-Foulkes estimate   =    -926.01559973 Ry
     estimated scf accuracy    <          3.3E-11 Ry

     iteration # 27     ecut=    90.00 Ry     beta= 0.70
     Davidson diagonalization with overlap
     ethr =  1.00E-13,  avg # of iterations =  4.8

     total cpu time spent up to now is       83.5 secs

     total energy              =    -926.01559973 Ry
     Harris-Foulkes estimate   =    -926.01559973 Ry
     estimated scf accuracy    <          1.8E-11 Ry

     iteration # 28     ecut=    90.00 Ry     beta= 0.70
     Davidson diagonalization with overlap
     ethr =  1.00E-13,  avg # of iterations =  1.0

     total cpu time spent up to now is       84.0 secs

     total energy              =    -926.01559973 Ry
     Harris-Foulkes estimate   =    -926.01559973 Ry
     estimated scf accuracy    <          1.7E-11 Ry

     iteration # 29     ecut=    90.00 Ry     beta= 0.70
     Davidson diagonalization with overlap
     ethr =  1.00E-13,  avg # of iterations =  1.0

     total cpu time spent up to now is       84.5 secs

     total energy              =    -926.01559973 Ry
     Harris-Foulkes estimate   =    -926.01559973 Ry
     estimated scf accuracy    <          1.3E-11 Ry

     iteration # 30     ecut=    90.00 Ry     beta= 0.70
     Davidson diagonalization with overlap
     ethr =  1.00E-13,  avg # of iterations =  1.0

     total cpu time spent up to now is       85.1 secs

     total energy              =    -926.01559973 Ry
     Harris-Foulkes estimate   =    -926.01559973 Ry
     estimated scf accuracy    <          3.4E-12 Ry

     iteration # 31     ecut=    90.00 Ry     beta= 0.70
     Davidson diagonalization with overlap
     ethr =  1.00E-13,  avg # of iterations =  1.0

     total cpu time spent up to now is       85.6 secs

     total energy              =    -926.01559973 Ry
     Harris-Foulkes estimate   =    -926.01559973 Ry
     estimated scf accuracy    <          2.1E-12 Ry

     iteration # 32     ecut=    90.00 Ry     beta= 0.70
     Davidson diagonalization with overlap
     ethr =  1.00E-13,  avg # of iterations =  1.0

     total cpu time spent up to now is       86.1 secs

     total energy              =    -926.01559973 Ry
     Harris-Foulkes estimate   =    -926.01559973 Ry
     estimated scf accuracy    <          1.0E-12 Ry

     iteration # 33     ecut=    90.00 Ry     beta= 0.70
     Davidson diagonalization with overlap
     ethr =  1.00E-13,  avg # of iterations =  1.0

     total cpu time spent up to now is       86.6 secs

     End of self-consistent calculation

          k = 0.0000 0.0000 0.0000 ( 19065 PWs)   bands (ev):

   -61.0446 -61.0429 -61.0357 -61.0340 -35.0221 -35.0199 -35.0126 -35.0082
   -34.9377 -34.8910 -34.8733 -34.8432 -34.8411 -34.8284 -34.8145 -34.8123
   -14.2451 -14.1316 -13.2645 -13.1172 -13.0488 -13.0464 -12.7028 -12.6978
   -12.5679 -12.5616  -1.0984  -1.0879  -1.0172  -0.9091  -0.8147  -0.4123
     0.2416   0.3269   0.5112   0.5980   0.7279   0.7707   0.8760   0.9214
     0.9845   1.0104   1.2815   1.3134   1.4201   1.4632   1.5737   1.5873
     1.7875   2.0228   2.1499   2.1778   2.3006   2.4743   2.4799   2.5668

          k = 0.0000 0.2546 0.0000 ( 18993 PWs)   bands (ev):

   -61.0446 -61.0429 -61.0357 -61.0340 -35.0228 -35.0206 -35.0141 -35.0096
   -34.9376 -34.8908 -34.8733 -34.8431 -34.8410 -34.8284 -34.8145 -34.8123
   -14.1980 -14.0924 -13.2205 -13.0997 -13.0477 -13.0311 -12.7189 -12.6946
   -12.5714 -12.5426  -1.1277  -1.1166  -1.0420  -0.9410  -0.9164  -0.5709
    -0.4326  -0.1986  -0.1594  -0.0252   0.4189   0.5477   0.6045   0.9653
     1.0707   1.2850   1.4423   1.4565   1.5945   1.6580   1.7863   1.8784
     2.1434   2.1515   2.1660   2.3360   2.3869   2.5771   2.6533   2.7315

          k = 0.3331 0.0000 0.0000 ( 19064 PWs)   bands (ev):

   -61.0410 -61.0393 -61.0366 -61.0349 -35.0167 -35.0147 -35.0110 -35.0076
   -34.9344 -34.9113 -34.8981 -34.8897 -34.8528 -34.8467 -34.8339 -34.8264
   -13.7219 -13.5943 -13.1750 -13.0136 -13.0098 -13.0048 -12.6464 -12.6457
   -12.6112 -12.5859  -1.5597  -1.4889  -0.8180  -0.7579  -0.7241  -0.3497
    -0.2560   0.0994   0.1199   0.4015   0.4126   0.4593   0.7821   0.8976
     0.9423   0.9735   0.9907   1.0757   1.2315   1.2445   1.4299   1.4737
     1.5261   1.9186   2.2137   2.2828   2.4094   2.5607   2.7536   2.7772

          k = 0.3331 0.2546 0.0000 ( 19041 PWs)   bands (ev):

   -61.0410 -61.0393 -61.0366 -61.0348 -35.0175 -35.0155 -35.0123 -35.0089
   -34.9342 -34.9112 -34.8979 -34.8896 -34.8528 -34.8467 -34.8339 -34.8264
   -13.6806 -13.5650 -13.1432 -13.0117 -13.0014 -12.9916 -12.6556 -12.6366
   -12.5819 -12.5600  -1.5581  -1.4862  -0.8555  -0.8133  -0.7948  -0.4558
    -0.4027  -0.2875  -0.1896  -0.0241   0.0425   0.1912   0.5314   0.5821
     0.6439   0.7241   0.8121   0.9104   0.9835   1.4273   1.6680   1.8318
     2.0517   2.1215   2.4314   2.6548   2.6627   2.7974   2.8846   2.9015

     highest occupied level (ev):     2.9015

!    total energy              =    -926.01559973 Ry
     Harris-Foulkes estimate   =    -926.01559973 Ry
     estimated scf accuracy    <          5.2E-13 Ry

     The total energy is the sum of the following terms:

     one-electron contribution =    -627.76341411 Ry
     hartree contribution      =     350.59154803 Ry
     xc contribution           =    -178.12809120 Ry
     ewald contribution        =    -470.71564245 Ry

     convergence has been achieved in  33 iterations

     Forces acting on atoms (cartesian axes, Ry/au):

     atom    1 type  1   force =    -0.00000000    0.00117147   -0.00002607
     atom    2 type  1   force =     0.00000000   -0.00117147    0.00002607
     atom    3 type  1   force =     0.00000000   -0.00117147   -0.00002607
     atom    4 type  1   force =     0.00000000    0.00117147    0.00002607
     atom    5 type  2   force =     0.00000000   -0.00014854    0.00016082
     atom    6 type  2   force =     0.00000000    0.00014854   -0.00016082
     atom    7 type  2   force =     0.00000000    0.00014854    0.00016082
     atom    8 type  2   force =     0.00000000   -0.00014854   -0.00016082
     atom    9 type  2   force =     0.00000000   -0.00010766    0.00012444
     atom   10 type  2   force =     0.00000000    0.00010766   -0.00012444
     atom   11 type  2   force =    -0.00000000    0.00010766    0.00012444
     atom   12 type  2   force =     0.00000000    0.00034541    0.00000000
     atom   13 type  2   force =     0.00000000   -0.00034541    0.00000000
     atom   14 type  2   force =     0.00000000   -0.00010766   -0.00012444

     Total force =     0.002456     Total SCF correction =     0.000002


     Computing stress (Cartesian axis) and pressure

          total   stress  (Ry/bohr**3)                   (kbar)     P=   -0.02
  -0.00000680   0.00000000   0.00000000         -1.00      0.00      0.00
   0.00000000   0.00001081   0.00000000          0.00      1.59      0.00
   0.00000000   0.00000000  -0.00000450          0.00      0.00     -0.66


     number of scf cycles    =   3
     number of bfgs steps    =   2

     enthalpy old            =    -926.0155960529 Ry
     enthalpy new            =    -926.0155997337 Ry

     CASE: enthalpy_new < enthalpy_old

     new trust radius        =       0.0016154929 bohr
     new conv_thr            =            1.0E-12 Ry

     new unit-cell volume =   1322.82018 a.u.^3 (   196.02172 Ang^3 )
     density =      3.08148 g/cm^3

CELL_PARAMETERS (alat=  6.76758343)
   1.000576825   0.000000000   0.000000000
   0.000000000   1.309412040   0.000000000
   0.000000000   0.000000000   3.257415700

ATOMIC_POSITIONS (crystal)
V        0.000000000   0.388507233   0.647696657
V        0.500000007   0.611492780   0.852303364
V        0.500000007   0.611492780   0.147696650
V       -0.000000000   0.388507233   0.352303357
O        0.500000007   0.493640969   0.681243985
O        0.000000000   0.506359045   0.818756037
O        0.000000000   0.506359045   0.181243977
O        0.500000007   0.493640969   0.318756030
O        0.000000000   0.049140225   0.356816049
O        0.500000007   0.950859789   0.143183958
O        0.500000007   0.950859789   0.856816056
O        0.500000007   0.500600171  -0.000000000
O        0.000000000   0.499399842   0.500000007
O        0.000000000   0.049140225   0.643183965



     Writing output data file v2o5.save/
     NEW-OLD atomic charge density approx. for the potential
     extrapolated charge  112.01689, renormalised to  112.00000

     total cpu time spent up to now is       88.7 secs

     Self-consistent Calculation

     iteration #  1     ecut=    90.00 Ry     beta= 0.70
     Davidson diagonalization with overlap
     ethr =  1.00E-06,  avg # of iterations =  2.0

     Threshold (ethr) on eigenvalues was too large:
     Diagonalizing with lowered threshold

     Davidson diagonalization with overlap
     ethr =  2.26E-08,  avg # of iterations =  4.0

     total cpu time spent up to now is       90.4 secs

     total energy              =    -926.01551136 Ry
     Harris-Foulkes estimate   =    -925.93795047 Ry
     estimated scf accuracy    <       0.00009147 Ry

     iteration #  2     ecut=    90.00 Ry     beta= 0.70
     Davidson diagonalization with overlap
     ethr =  8.17E-08,  avg # of iterations =  5.8

     total cpu time spent up to now is       91.7 secs

     total energy              =    -926.01541004 Ry
     Harris-Foulkes estimate   =    -926.01592683 Ry
     estimated scf accuracy    <       0.00278727 Ry

     iteration #  3     ecut=    90.00 Ry     beta= 0.70
     Davidson diagonalization with overlap
     ethr =  8.17E-08,  avg # of iterations =  5.0

     total cpu time spent up to now is       93.0 secs

     total energy              =    -926.01560700 Ry
     Harris-Foulkes estimate   =    -926.01561460 Ry
     estimated scf accuracy    <       0.00005746 Ry

     iteration #  4     ecut=    90.00 Ry     beta= 0.70
     Davidson diagonalization with overlap
     ethr =  5.13E-08,  avg # of iterations =  1.0

     total cpu time spent up to now is       93.5 secs

     total energy              =    -926.01560150 Ry
     Harris-Foulkes estimate   =    -926.01560799 Ry
     estimated scf accuracy    <       0.00004093 Ry

     iteration #  5     ecut=    90.00 Ry     beta= 0.70
     Davidson diagonalization with overlap
     ethr =  3.65E-08,  avg # of iterations =  3.0

     total cpu time spent up to now is       94.1 secs

     total energy              =    -926.01560338 Ry
     Harris-Foulkes estimate   =    -926.01560340 Ry
     estimated scf accuracy    <       0.00001520 Ry

     iteration #  6     ecut=    90.00 Ry     beta= 0.70
     Davidson diagonalization with overlap
     ethr =  1.36E-08,  avg # of iterations =  4.0

     total cpu time spent up to now is       94.8 secs

     total energy              =    -926.01560389 Ry
     Harris-Foulkes estimate   =    -926.01560463 Ry
     estimated scf accuracy    <       0.00000792 Ry

     iteration #  7     ecut=    90.00 Ry     beta= 0.70
     Davidson diagonalization with overlap
     ethr =  7.07E-09,  avg # of iterations =  4.2

     total cpu time spent up to now is       95.6 secs

     total energy              =    -926.01560541 Ry
     Harris-Foulkes estimate   =    -926.01560540 Ry
     estimated scf accuracy    <       0.00000179 Ry

     iteration #  8     ecut=    90.00 Ry     beta= 0.70
     Davidson diagonalization with overlap
     ethr =  1.60E-09,  avg # of iterations =  3.5

     total cpu time spent up to now is       96.2 secs

     total energy              =    -926.01560540 Ry
     Harris-Foulkes estimate   =    -926.01560550 Ry
     estimated scf accuracy    <       0.00000215 Ry

     iteration #  9     ecut=    90.00 Ry     beta= 0.70
     Davidson diagonalization with overlap
     ethr =  1.60E-09,  avg # of iterations =  3.8

     total cpu time spent up to now is       96.9 secs

     total energy              =    -926.01560585 Ry
     Harris-Foulkes estimate   =    -926.01560551 Ry
     estimated scf accuracy    <       0.00000238 Ry

     iteration # 10     ecut=    90.00 Ry     beta= 0.70
     Davidson diagonalization with overlap
     ethr =  1.60E-09,  avg # of iterations =  4.0

     total cpu time spent up to now is       97.9 secs

     total energy              =    -926.01560774 Ry
     Harris-Foulkes estimate   =    -926.01560704 Ry
     estimated scf accuracy    <       0.00001642 Ry

     iteration # 11     ecut=    90.00 Ry     beta= 0.70
     Davidson diagonalization with overlap
     ethr =  1.60E-09,  avg # of iterations =  1.0

     total cpu time spent up to now is       98.4 secs

     total energy              =    -926.01560674 Ry
     Harris-Foulkes estimate   =    -926.01560777 Ry
     estimated scf accuracy    <       0.00001819 Ry

     iteration # 12     ecut=    90.00 Ry     beta= 0.70
     Davidson diagonalization with overlap
     ethr =  1.60E-09,  avg # of iterations =  5.0

     total cpu time spent up to now is       99.4 secs

     total energy              =    -926.01560632 Ry
     Harris-Foulkes estimate   =    -926.01560752 Ry
     estimated scf accuracy    <       0.00001619 Ry

     iteration # 13     ecut=    90.00 Ry     beta= 0.70
     Davidson diagonalization with overlap
     ethr =  1.60E-09,  avg # of iterations =  3.0

     total cpu time spent up to now is      100.0 secs

     total energy              =    -926.01560563 Ry
     Harris-Foulkes estimate   =    -926.01560642 Ry
     estimated scf accuracy    <       0.00001111 Ry

     iteration # 14     ecut=    90.00 Ry     beta= 0.70
     Davidson diagonalization with overlap
     ethr =  1.60E-09,  avg # of iterations =  4.0

     total cpu time spent up to now is      100.8 secs

     total energy              =    -926.01560353 Ry
     Harris-Foulkes estimate   =    -926.01560593 Ry
     estimated scf accuracy    <       0.00000493 Ry

     iteration # 15     ecut=    90.00 Ry     beta= 0.70
     Davidson diagonalization with overlap
     ethr =  1.60E-09,  avg # of iterations =  6.0

     total cpu time spent up to now is      102.1 secs

     total energy              =    -926.01558654 Ry
     Harris-Foulkes estimate   =    -926.01562126 Ry
     estimated scf accuracy    <       0.00013982 Ry

     iteration # 16     ecut=    90.00 Ry     beta= 0.70
     Davidson diagonalization with overlap
     ethr =  1.60E-09,  avg # of iterations =  6.0

     total cpu time spent up to now is      103.5 secs

     total energy              =    -926.01560503 Ry
     Harris-Foulkes estimate   =    -926.01560560 Ry
     estimated scf accuracy    <       0.00000421 Ry

     iteration # 17     ecut=    90.00 Ry     beta= 0.70
     Davidson diagonalization with overlap
     ethr =  1.60E-09,  avg # of iterations =  2.5

     total cpu time spent up to now is      104.1 secs

     total energy              =    -926.01560488 Ry
     Harris-Foulkes estimate   =    -926.01560509 Ry
     estimated scf accuracy    <       0.00000240 Ry

     iteration # 18     ecut=    90.00 Ry     beta= 0.70
     Davidson diagonalization with overlap
     ethr =  1.60E-09,  avg # of iterations =  3.0

     total cpu time spent up to now is      104.8 secs

     total energy              =    -926.01560496 Ry
     Harris-Foulkes estimate   =    -926.01560502 Ry
     estimated scf accuracy    <       0.00000051 Ry

     iteration # 19     ecut=    90.00 Ry     beta= 0.70
     Davidson diagonalization with overlap
     ethr =  4.53E-10,  avg # of iterations =  4.0

     total cpu time spent up to now is      105.5 secs

     total energy              =    -926.01560503 Ry
     Harris-Foulkes estimate   =    -926.01560504 Ry
     estimated scf accuracy    <       0.00000005 Ry

     iteration # 20     ecut=    90.00 Ry     beta= 0.70
     Davidson diagonalization with overlap
     ethr =  4.42E-11,  avg # of iterations =  4.8

     total cpu time spent up to now is      106.4 secs

     total energy              =    -926.01560505 Ry
     Harris-Foulkes estimate   =    -926.01560505 Ry
     estimated scf accuracy    <          4.8E-09 Ry

     iteration # 21     ecut=    90.00 Ry     beta= 0.70
     Davidson diagonalization with overlap
     ethr =  4.30E-12,  avg # of iterations =  4.0

     total cpu time spent up to now is      107.2 secs

     total energy              =    -926.01560505 Ry
     Harris-Foulkes estimate   =    -926.01560505 Ry
     estimated scf accuracy    <          4.8E-09 Ry

     iteration # 22     ecut=    90.00 Ry     beta= 0.70
     Davidson diagonalization with overlap
     ethr =  4.27E-12,  avg # of iterations =  4.0

     total cpu time spent up to now is      107.9 secs

     total energy              =    -926.01560505 Ry
     Harris-Foulkes estimate   =    -926.01560505 Ry
     estimated scf accuracy    <          2.5E-10 Ry

     iteration # 23     ecut=    90.00 Ry     beta= 0.70
     Davidson diagonalization with overlap
     ethr =  2.23E-13,  avg # of iterations =  5.0

     total cpu time spent up to now is      109.0 secs

     total energy              =    -926.01560505 Ry
     Harris-Foulkes estimate   =    -926.01560505 Ry
     estimated scf accuracy    <          1.2E-09 Ry

     iteration # 24     ecut=    90.00 Ry     beta= 0.70
     Davidson diagonalization with overlap
     ethr =  2.23E-13,  avg # of iterations =  3.8

     total cpu time spent up to now is      109.7 secs

     total energy              =    -926.01560505 Ry
     Harris-Foulkes estimate   =    -926.01560505 Ry
     estimated scf accuracy    <          5.3E-10 Ry

     iteration # 25     ecut=    90.00 Ry     beta= 0.70
     Davidson diagonalization with overlap
     ethr =  2.23E-13,  avg # of iterations =  4.2

     total cpu time spent up to now is      110.5 secs

     total energy              =    -926.01560505 Ry
     Harris-Foulkes estimate   =    -926.01560505 Ry
     estimated scf accuracy    <          5.0E-11 Ry

     iteration # 26     ecut=    90.00 Ry     beta= 0.70
     Davidson diagonalization with overlap
     ethr =  1.00E-13,  avg # of iterations =  4.2

     total cpu time spent up to now is      111.2 secs

     total energy              =    -926.01560505 Ry
     Harris-Foulkes estimate   =    -926.01560505 Ry
     estimated scf accuracy    <          6.9E-12 Ry

     iteration # 27     ecut=    90.00 Ry     beta= 0.70
     Davidson diagonalization with overlap
     ethr =  1.00E-13,  avg # of iterations =  2.8

     total cpu time spent up to now is      111.7 secs

     total energy              =    -926.01560505 Ry
     Harris-Foulkes estimate   =    -926.01560505 Ry
     estimated scf accuracy    <          1.8E-12 Ry

     iteration # 28     ecut=    90.00 Ry     beta= 0.70
     Davidson diagonalization with overlap
     ethr =  1.00E-13,  avg # of iterations =  1.0

     total cpu time spent up to now is      112.2 secs

     total energy              =    -926.01560505 Ry
     Harris-Foulkes estimate   =    -926.01560505 Ry
     estimated scf accuracy    <          3.5E-12 Ry

     iteration # 29     ecut=    90.00 Ry     beta= 0.70
     Davidson diagonalization with overlap
     ethr =  1.00E-13,  avg # of iterations =  1.0

     total cpu time spent up to now is      112.8 secs

     total energy              =    -926.01560505 Ry
     Harris-Foulkes estimate   =    -926.01560505 Ry
     estimated scf accuracy    <          4.2E-12 Ry

     iteration # 30     ecut=    90.00 Ry     beta= 0.70
     Davidson diagonalization with overlap
     ethr =  1.00E-13,  avg # of iterations =  1.0

     total cpu time spent up to now is      113.3 secs

     total energy              =    -926.01560505 Ry
     Harris-Foulkes estimate   =    -926.01560505 Ry
     estimated scf accuracy    <          3.4E-12 Ry

     iteration # 31     ecut=    90.00 Ry     beta= 0.70
     Davidson diagonalization with overlap
     ethr =  1.00E-13,  avg # of iterations =  1.0

     total cpu time spent up to now is      113.8 secs

     total energy              =    -926.01560505 Ry
     Harris-Foulkes estimate   =    -926.01560505 Ry
     estimated scf accuracy    <          3.5E-12 Ry

     iteration # 32     ecut=    90.00 Ry     beta= 0.70
     Davidson diagonalization with overlap
     ethr =  1.00E-13,  avg # of iterations =  1.0

     total cpu time spent up to now is      114.3 secs

     total energy              =    -926.01560505 Ry
     Harris-Foulkes estimate   =    -926.01560505 Ry
     estimated scf accuracy    <          1.7E-12 Ry

     iteration # 33     ecut=    90.00 Ry     beta= 0.70
     Davidson diagonalization with overlap
     ethr =  1.00E-13,  avg # of iterations =  1.0

     total cpu time spent up to now is      114.8 secs

     End of self-consistent calculation

          k = 0.0000 0.0000 0.0000 ( 19065 PWs)   bands (ev):

   -61.0467 -61.0450 -61.0378 -61.0361 -35.0232 -35.0210 -35.0137 -35.0092
   -34.9402 -34.8935 -34.8757 -34.8455 -34.8434 -34.8308 -34.8168 -34.8146
   -14.2482 -14.1346 -13.2673 -13.1199 -13.0521 -13.0497 -12.7035 -12.6981
   -12.5682 -12.5622  -1.1016  -1.0910  -1.0213  -0.9126  -0.8182  -0.4147
     0.2392   0.3262   0.5095   0.5951   0.7271   0.7698   0.8757   0.9212
     0.9839   1.0101   1.2799   1.3141   1.4163   1.4643   1.5727   1.5868
     1.7859   2.0198   2.1492   2.1772   2.2979   2.4733   2.4775   2.5650

          k = 0.0000 0.2546 0.0000 ( 18993 PWs)   bands (ev):

   -61.0467 -61.0450 -61.0378 -61.0361 -35.0239 -35.0216 -35.0152 -35.0107
   -34.9400 -34.8933 -34.8757 -34.8454 -34.8433 -34.8308 -34.8168 -34.8146
   -14.2013 -14.0957 -13.2236 -13.1026 -13.0510 -13.0346 -12.7193 -12.6949
   -12.5718 -12.5429  -1.1307  -1.1196  -1.0456  -0.9444  -0.9195  -0.5714
    -0.4347  -0.1998  -0.1599  -0.0258   0.4189   0.5475   0.6042   0.9649
     1.0708   1.2826   1.4383   1.4544   1.5924   1.6586   1.7857   1.8785
     2.1424   2.1504   2.1630   2.3336   2.3844   2.5751   2.6509   2.7298

          k = 0.3331 0.0000 0.0000 ( 19064 PWs)   bands (ev):

   -61.0431 -61.0414 -61.0387 -61.0369 -35.0178 -35.0157 -35.0121 -35.0087
   -34.9368 -34.9137 -34.9005 -34.8921 -34.8551 -34.8490 -34.8363 -34.8288
   -13.7249 -13.5971 -13.1782 -13.0164 -13.0125 -13.0081 -12.6467 -12.6463
   -12.6113 -12.5865  -1.5631  -1.4922  -0.8217  -0.7610  -0.7277  -0.3521
    -0.2583   0.0975   0.1172   0.3999   0.4113   0.4582   0.7805   0.8968
     0.9418   0.9730   0.9901   1.0753   1.2306   1.2446   1.4291   1.4708
     1.5263   1.9173   2.2121   2.2823   2.4079   2.5598   2.7512   2.7739

          k = 0.3331 0.2546 0.0000 ( 19041 PWs)   bands (ev):

   -61.0431 -61.0414 -61.0387 -61.0369 -35.0186 -35.0165 -35.0134 -35.0099
   -34.9367 -34.9136 -34.9003 -34.8919 -34.8551 -34.8490 -34.8363 -34.8288
   -13.6838 -13.5680 -13.1467 -13.0145 -13.0042 -12.9950 -12.6560 -12.6368
   -12.5822 -12.5602  -1.5615  -1.4895  -0.8588  -0.8161  -0.7979  -0.4567
    -0.4050  -0.2894  -0.1907  -0.0250   0.0418   0.1892   0.5316   0.5802
     0.6428   0.7237   0.8116   0.9091   0.9832   1.4274   1.6655   1.8318
     2.0499   2.1198   2.4302   2.6531   2.6605   2.7957   2.8815   2.8993

     highest occupied level (ev):     2.8993

!    total energy              =    -926.01560505 Ry
     Harris-Foulkes estimate   =    -926.01560505 Ry
     estimated scf accuracy    <          1.5E-13 Ry

     The total energy is the sum of the following terms:

     one-electron contribution =    -627.90138317 Ry
     hartree contribution      =     350.65257637 Ry
     xc contribution           =    -178.12726758 Ry
     ewald contribution        =    -470.63953067 Ry

     convergence has been achieved in  33 iterations

     Forces acting on atoms (cartesian axes, Ry/au):

     atom    1 type  1   force =     0.00000000    0.00039262    0.00005275
     atom    2 type  1   force =     0.00000000   -0.00039262   -0.00005275
     atom    3 type  1   force =     0.00000000   -0.00039262    0.00005275
     atom    4 type  1   force =     0.00000000    0.00039262   -0.00005275
     atom    5 type  2   force =     0.00000000   -0.00010748    0.00010371
     atom    6 type  2   force =     0.00000000    0.00010748   -0.00010371
     atom    7 type  2   force =     0.00000000    0.00010748    0.00010371
     atom    8 type  2   force =     0.00000000   -0.00010748   -0.00010371
     atom    9 type  2   force =     0.00000000    0.00051004    0.00010657
     atom   10 type  2   force =    -0.00000000   -0.00051004   -0.00010657
     atom   11 type  2   force =    -0.00000000   -0.00051004    0.00010657
     atom   12 type  2   force =    -0.00000000    0.00020598    0.00000000
     atom   13 type  2   force =     0.00000000   -0.00020598    0.00000000
     atom   14 type  2   force =     0.00000000    0.00051004   -0.00010657

     Total force =     0.001374     Total SCF correction =     0.000001


     Computing stress (Cartesian axis) and pressure

          total   stress  (Ry/bohr**3)                   (kbar)     P=   -0.17
  -0.00000565   0.00000000   0.00000000         -0.83      0.00      0.00
   0.00000000   0.00000499   0.00000000          0.00      0.73      0.00
   0.00000000   0.00000000  -0.00000270          0.00      0.00     -0.40


     number of scf cycles    =   4
     number of bfgs steps    =   3

     enthalpy old            =    -926.0155997337 Ry
     enthalpy new            =    -926.0156050498 Ry

     CASE: enthalpy_new < enthalpy_old

     new trust radius        =       0.0024228839 bohr
     new conv_thr            =            1.0E-12 Ry

     new unit-cell volume =   1323.20566 a.u.^3 (   196.07885 Ang^3 )
     density =      3.08059 g/cm^3

CELL_PARAMETERS (alat=  6.76758343)
   1.000499678   0.000000000   0.000000000
   0.000000000   1.309848183   0.000000000
   0.000000000   0.000000000   3.257531155

ATOMIC_POSITIONS (crystal)
V        0.000000000   0.388566514   0.647689721
V        0.500000007   0.611433499   0.852310300
V        0.500000007   0.611433499   0.147689714
V       -0.000000000   0.388566514   0.352310293
O        0.500000007   0.493629321   0.681256705
O        0.000000000   0.506370693   0.818743317
O        0.000000000   0.506370693   0.181256697
O        0.500000007   0.493629321   0.318743310
O        0.000000000   0.049274500   0.356826754
O        0.500000007   0.950725514   0.143173253
O        0.500000007   0.950725514   0.856826761
O        0.500000007   0.500639964  -0.000000000
O        0.000000000   0.499360049   0.500000007
O        0.000000000   0.049274500   0.643173260



     Writing output data file v2o5.save/
     NEW-OLD atomic charge density approx. for the potential
     extrapolated charge  112.03263, renormalised to  112.00000

     total cpu time spent up to now is      116.8 secs

     Self-consistent Calculation

     iteration #  1     ecut=    90.00 Ry     beta= 0.70
     Davidson diagonalization with overlap
     ethr =  1.00E-06,  avg # of iterations =  3.0

     Threshold (ethr) on eigenvalues was too large:
     Diagonalizing with lowered threshold

     Davidson diagonalization with overlap
     ethr =  7.20E-08,  avg # of iterations =  4.0

     total cpu time spent up to now is      118.5 secs

     total energy              =    -926.01527787 Ry
     Harris-Foulkes estimate   =    -925.86555684 Ry
     estimated scf accuracy    <       0.00032117 Ry

     iteration #  2     ecut=    90.00 Ry     beta= 0.70
     Davidson diagonalization with overlap
     ethr =  2.87E-07,  avg # of iterations =  5.8

     total cpu time spent up to now is      119.8 secs

     total energy              =    -926.01491367 Ry
     Harris-Foulkes estimate   =    -926.01676482 Ry
     estimated scf accuracy    <       0.01008276 Ry

     iteration #  3     ecut=    90.00 Ry     beta= 0.70
     Davidson diagonalization with overlap
     ethr =  2.87E-07,  avg # of iterations =  5.0

     total cpu time spent up to now is      121.1 secs

     total energy              =    -926.01561910 Ry
     Harris-Foulkes estimate   =    -926.01564587 Ry
     estimated scf accuracy    <       0.00021425 Ry

     iteration #  4     ecut=    90.00 Ry     beta= 0.70
     Davidson diagonalization with overlap
     ethr =  1.91E-07,  avg # of iterations =  1.0

     total cpu time spent up to now is      121.6 secs

     total energy              =    -926.01560139 Ry
     Harris-Foulkes estimate   =    -926.01562242 Ry
     estimated scf accuracy    <       0.00015536 Ry

     iteration #  5     ecut=    90.00 Ry     beta= 0.70
     Davidson diagonalization with overlap
     ethr =  1.39E-07,  avg # of iterations =  2.0

     total cpu time spent up to now is      122.2 secs

     total energy              =    -926.01560543 Ry
     Harris-Foulkes estimate   =    -926.01560639 Ry
     estimated scf accuracy    <       0.00007361 Ry

     iteration #  6     ecut=    90.00 Ry     beta= 0.70
     Davidson diagonalization with overlap
     ethr =  6.57E-08,  avg # of iterations =  1.8

     total cpu time spent up to now is      122.8 secs

     total energy              =    -926.01560803 Ry
     Harris-Foulkes estimate   =    -926.01560782 Ry
     estimated scf accuracy    <       0.00006224 Ry

     iteration #  7     ecut=    90.00 Ry     beta= 0.70
     Davidson diagonalization with overlap
     ethr =  5.56E-08,  avg # of iterations =  1.0

     total cpu time spent up to now is      123.3 secs

     total energy              =    -926.01560705 Ry
     Harris-Foulkes estimate   =    -926.01560901 Ry
     estimated scf accuracy    <       0.00005317 Ry

     iteration #  8     ecut=    90.00 Ry     beta= 0.70
     Davidson diagonalization with overlap
     ethr =  4.75E-08,  avg # of iterations =  1.0

     total cpu time spent up to now is      123.8 secs

     total energy              =    -926.01560607 Ry
     Harris-Foulkes estimate   =    -926.01560813 Ry
     estimated scf accuracy    <       0.00004133 Ry

     iteration #  9     ecut=    90.00 Ry     beta= 0.70
     Davidson diagonalization with overlap
     ethr =  3.69E-08,  avg # of iterations =  3.2

     total cpu time spent up to now is      124.4 secs

     total energy              =    -926.01560671 Ry
     Harris-Foulkes estimate   =    -926.01560897 Ry
     estimated scf accuracy    <       0.00002289 Ry

     iteration # 10     ecut=    90.00 Ry     beta= 0.70
     Davidson diagonalization with overlap
     ethr =  2.04E-08,  avg # of iterations =  4.2

     total cpu time spent up to now is      125.2 secs

     total energy              =    -926.01561078 Ry
     Harris-Foulkes estimate   =    -926.01561162 Ry
     estimated scf accuracy    <       0.00000487 Ry

     iteration # 11     ecut=    90.00 Ry     beta= 0.70
     Davidson diagonalization with overlap
     ethr =  4.35E-09,  avg # of iterations =  4.0

     total cpu time spent up to now is      125.9 secs

     total energy              =    -926.01560882 Ry
     Harris-Foulkes estimate   =    -926.01561118 Ry
     estimated scf accuracy    <       0.00000377 Ry

     iteration # 12     ecut=    90.00 Ry     beta= 0.70
     Davidson diagonalization with overlap
     ethr =  3.37E-09,  avg # of iterations =  5.0

     total cpu time spent up to now is      127.2 secs

[...]

     Self-consistent Calculation

     iteration #  1     ecut=    90.00 Ry     beta= 0.70
     Davidson diagonalization with overlap
     ethr =  1.00E-06,  avg # of iterations =  7.5

     total cpu time spent up to now is      171.2 secs

     total energy              =    -920.75934571 Ry
     Harris-Foulkes estimate   =    -927.70435777 Ry
     estimated scf accuracy    <       8.69186530 Ry

     iteration #  2     ecut=    90.00 Ry     beta= 0.70
     Davidson diagonalization with overlap
     ethr =  7.76E-03,  avg # of iterations =  6.2

     total cpu time spent up to now is      172.7 secs

     total energy              =    -911.04720554 Ry
     Harris-Foulkes estimate   =    -945.14856011 Ry
     estimated scf accuracy    <     152.75854956 Ry

     iteration #  3     ecut=    90.00 Ry     beta= 0.70
     Davidson diagonalization with overlap
     ethr =  7.76E-03,  avg # of iterations =  5.5

     total cpu time spent up to now is      174.0 secs

     total energy              =    -925.70743658 Ry
     Harris-Foulkes estimate   =    -926.65552956 Ry
     estimated scf accuracy    <       3.02754487 Ry

     iteration #  4     ecut=    90.00 Ry     beta= 0.70
     Davidson diagonalization with overlap
     ethr =  2.70E-03,  avg # of iterations =  4.0

     total cpu time spent up to now is      174.8 secs

     total energy              =    -925.95538669 Ry
     Harris-Foulkes estimate   =    -926.10638273 Ry
     estimated scf accuracy    <       0.91258995 Ry

     iteration #  5     ecut=    90.00 Ry     beta= 0.70
     Davidson diagonalization with overlap
     ethr =  8.15E-04,  avg # of iterations =  3.8

     total cpu time spent up to now is      175.5 secs

     total energy              =    -925.87343656 Ry
     Harris-Foulkes estimate   =    -926.01915310 Ry
     estimated scf accuracy    <       0.49354466 Ry

     iteration #  6     ecut=    90.00 Ry     beta= 0.70
     Davidson diagonalization with overlap
     ethr =  4.41E-04,  avg # of iterations =  4.0

     total cpu time spent up to now is      176.4 secs

     total energy              =    -926.02372454 Ry
     Harris-Foulkes estimate   =    -926.04786657 Ry
     estimated scf accuracy    <       0.26467245 Ry

     iteration #  7     ecut=    90.00 Ry     beta= 0.70
     Davidson diagonalization with overlap
     ethr =  2.36E-04,  avg # of iterations =  1.0

     total cpu time spent up to now is      177.0 secs

     total energy              =    -925.98572247 Ry
     Harris-Foulkes estimate   =    -926.02638399 Ry
     estimated scf accuracy    <       0.20079658 Ry

     iteration #  8     ecut=    90.00 Ry     beta= 0.70
     Davidson diagonalization with overlap
     ethr =  1.79E-04,  avg # of iterations =  3.5

     total cpu time spent up to now is      177.7 secs

     total energy              =    -926.01111795 Ry
     Harris-Foulkes estimate   =    -926.01328151 Ry
     estimated scf accuracy    <       0.00803509 Ry

     iteration #  9     ecut=    90.00 Ry     beta= 0.70
     Davidson diagonalization with overlap
     ethr =  7.17E-06,  avg # of iterations =  5.5

     total cpu time spent up to now is      178.8 secs

     total energy              =    -926.01600896 Ry
     Harris-Foulkes estimate   =    -926.01695002 Ry
     estimated scf accuracy    <       0.01177754 Ry

     iteration # 10     ecut=    90.00 Ry     beta= 0.70
     Davidson diagonalization with overlap
     ethr =  7.17E-06,  avg # of iterations =  1.0

     total cpu time spent up to now is      179.3 secs

     total energy              =    -926.01394019 Ry
     Harris-Foulkes estimate   =    -926.01610571 Ry
     estimated scf accuracy    <       0.00897438 Ry

     iteration # 11     ecut=    90.00 Ry     beta= 0.70
     Davidson diagonalization with overlap
     ethr =  7.17E-06,  avg # of iterations =  4.0

     total cpu time spent up to now is      180.2 secs

     total energy              =    -926.01541098 Ry
     Harris-Foulkes estimate   =    -926.01576754 Ry
     estimated scf accuracy    <       0.00134710 Ry

     iteration # 12     ecut=    90.00 Ry     beta= 0.70
     Davidson diagonalization with overlap
     ethr =  1.20E-06,  avg # of iterations =  4.0

     total cpu time spent up to now is      180.9 secs

     total energy              =    -926.01553262 Ry
     Harris-Foulkes estimate   =    -926.01556655 Ry
     estimated scf accuracy    <       0.00010904 Ry

     iteration # 13     ecut=    90.00 Ry     beta= 0.70
     Davidson diagonalization with overlap
     ethr =  9.74E-08,  avg # of iterations =  5.0

     total cpu time spent up to now is      182.1 secs

     total energy              =    -926.01561228 Ry
     Harris-Foulkes estimate   =    -926.01566157 Ry
     estimated scf accuracy    <       0.00031306 Ry

     iteration # 14     ecut=    90.00 Ry     beta= 0.70
     Davidson diagonalization with overlap
     ethr =  9.74E-08,  avg # of iterations =  3.0

     total cpu time spent up to now is      182.8 secs

     total energy              =    -926.01560069 Ry
     Harris-Foulkes estimate   =    -926.01562101 Ry
     estimated scf accuracy    <       0.00010377 Ry

     iteration # 15     ecut=    90.00 Ry     beta= 0.70
     Davidson diagonalization with overlap
     ethr =  9.26E-08,  avg # of iterations =  3.8

     total cpu time spent up to now is      183.6 secs

     total energy              =    -926.01561787 Ry
     Harris-Foulkes estimate   =    -926.01561801 Ry
     estimated scf accuracy    <       0.00000040 Ry

     iteration # 16     ecut=    90.00 Ry     beta= 0.70
     Davidson diagonalization with overlap
     ethr =  3.59E-10,  avg # of iterations =  6.0

     total cpu time spent up to now is      184.9 secs

     total energy              =    -926.01562038 Ry
     Harris-Foulkes estimate   =    -926.01562124 Ry
     estimated scf accuracy    <       0.00000696 Ry

     iteration # 17     ecut=    90.00 Ry     beta= 0.70
     Davidson diagonalization with overlap
     ethr =  3.59E-10,  avg # of iterations =  4.8

     total cpu time spent up to now is      185.9 secs

     total energy              =    -926.01562020 Ry
     Harris-Foulkes estimate   =    -926.01562058 Ry
     estimated scf accuracy    <       0.00000153 Ry

     iteration # 18     ecut=    90.00 Ry     beta= 0.70
     Davidson diagonalization with overlap
     ethr =  3.59E-10,  avg # of iterations =  4.5

     total cpu time spent up to now is      187.0 secs

     total energy              =    -926.01562041 Ry
     Harris-Foulkes estimate   =    -926.01562041 Ry
     estimated scf accuracy    <       0.00000005 Ry

     iteration # 19     ecut=    90.00 Ry     beta= 0.70
     Davidson diagonalization with overlap
     ethr =  4.17E-11,  avg # of iterations =  1.0

     total cpu time spent up to now is      187.5 secs

     total energy              =    -926.01562040 Ry
     Harris-Foulkes estimate   =    -926.01562041 Ry
     estimated scf accuracy    <       0.00000003 Ry

     iteration # 20     ecut=    90.00 Ry     beta= 0.70
     Davidson diagonalization with overlap
     ethr =  3.00E-11,  avg # of iterations =  3.2

     total cpu time spent up to now is      188.2 secs

     total energy              =    -926.01562041 Ry
     Harris-Foulkes estimate   =    -926.01562041 Ry
     estimated scf accuracy    <          3.4E-09 Ry

     iteration # 21     ecut=    90.00 Ry     beta= 0.70
     Davidson diagonalization with overlap
     ethr =  3.07E-12,  avg # of iterations =  5.0

     total cpu time spent up to now is      189.3 secs

     total energy              =    -926.01562041 Ry
     Harris-Foulkes estimate   =    -926.01562041 Ry
     estimated scf accuracy    <          4.4E-09 Ry

     iteration # 22     ecut=    90.00 Ry     beta= 0.70
     Davidson diagonalization with overlap
     ethr =  3.07E-12,  avg # of iterations =  1.0

     total cpu time spent up to now is      189.8 secs

     total energy              =    -926.01562041 Ry
     Harris-Foulkes estimate   =    -926.01562041 Ry
     estimated scf accuracy    <          2.9E-09 Ry

     iteration # 23     ecut=    90.00 Ry     beta= 0.70
     Davidson diagonalization with overlap
     ethr =  2.59E-12,  avg # of iterations =  4.0

     total cpu time spent up to now is      190.8 secs

     total energy              =    -926.01562041 Ry
     Harris-Foulkes estimate   =    -926.01562041 Ry
     estimated scf accuracy    <          1.6E-09 Ry

     iteration # 24     ecut=    90.00 Ry     beta= 0.70
     Davidson diagonalization with overlap
     ethr =  1.45E-12,  avg # of iterations =  1.0

     total cpu time spent up to now is      191.3 secs

     total energy              =    -926.01562041 Ry
     Harris-Foulkes estimate   =    -926.01562041 Ry
     estimated scf accuracy    <          1.0E-09 Ry

     iteration # 25     ecut=    90.00 Ry     beta= 0.70
     Davidson diagonalization with overlap
     ethr =  9.34E-13,  avg # of iterations =  1.0

     total cpu time spent up to now is      191.8 secs

     total energy              =    -926.01562041 Ry
     Harris-Foulkes estimate   =    -926.01562041 Ry
     estimated scf accuracy    <          8.7E-10 Ry

     iteration # 26     ecut=    90.00 Ry     beta= 0.70
     Davidson diagonalization with overlap
     ethr =  7.79E-13,  avg # of iterations =  1.0

     total cpu time spent up to now is      192.4 secs

     total energy              =    -926.01562041 Ry
     Harris-Foulkes estimate   =    -926.01562041 Ry
     estimated scf accuracy    <          5.9E-10 Ry

     iteration # 27     ecut=    90.00 Ry     beta= 0.70
     Davidson diagonalization with overlap
     ethr =  5.31E-13,  avg # of iterations =  4.0

     total cpu time spent up to now is      193.1 secs

     total energy              =    -926.01562041 Ry
     Harris-Foulkes estimate   =    -926.01562041 Ry
     estimated scf accuracy    <          1.9E-11 Ry

     iteration # 28     ecut=    90.00 Ry     beta= 0.70
     Davidson diagonalization with overlap
     ethr =  1.00E-13,  avg # of iterations =  4.5

     total cpu time spent up to now is      194.0 secs

     total energy              =    -926.01562041 Ry
     Harris-Foulkes estimate   =    -926.01562041 Ry
     estimated scf accuracy    <          3.3E-11 Ry

     iteration # 29     ecut=    90.00 Ry     beta= 0.70
     Davidson diagonalization with overlap
     ethr =  1.00E-13,  avg # of iterations =  1.5

     total cpu time spent up to now is      194.5 secs

     total energy              =    -926.01562041 Ry
     Harris-Foulkes estimate   =    -926.01562041 Ry
     estimated scf accuracy    <          4.6E-12 Ry

     iteration # 30     ecut=    90.00 Ry     beta= 0.70
     Davidson diagonalization with overlap
     ethr =  1.00E-13,  avg # of iterations =  1.0

     total cpu time spent up to now is      195.0 secs

     total energy              =    -926.01562041 Ry
     Harris-Foulkes estimate   =    -926.01562041 Ry
     estimated scf accuracy    <          1.3E-11 Ry

     iteration # 31     ecut=    90.00 Ry     beta= 0.70
     Davidson diagonalization with overlap
     ethr =  1.00E-13,  avg # of iterations =  1.0

     total cpu time spent up to now is      195.6 secs

     total energy              =    -926.01562041 Ry
     Harris-Foulkes estimate   =    -926.01562041 Ry
     estimated scf accuracy    <          1.0E-11 Ry

     iteration # 32     ecut=    90.00 Ry     beta= 0.70
     Davidson diagonalization with overlap
     ethr =  1.00E-13,  avg # of iterations =  1.0

     total cpu time spent up to now is      196.1 secs

     total energy              =    -926.01562041 Ry
     Harris-Foulkes estimate   =    -926.01562041 Ry
     estimated scf accuracy    <          5.8E-12 Ry

     iteration # 33     ecut=    90.00 Ry     beta= 0.70
     Davidson diagonalization with overlap
     ethr =  1.00E-13,  avg # of iterations =  1.0

     total cpu time spent up to now is      196.6 secs

     total energy              =    -926.01562041 Ry
     Harris-Foulkes estimate   =    -926.01562041 Ry
     estimated scf accuracy    <          5.2E-12 Ry

     iteration # 34     ecut=    90.00 Ry     beta= 0.70
     Davidson diagonalization with overlap
     ethr =  1.00E-13,  avg # of iterations =  1.0

     total cpu time spent up to now is      197.1 secs

     total energy              =    -926.01562041 Ry
     Harris-Foulkes estimate   =    -926.01562041 Ry
     estimated scf accuracy    <          2.9E-12 Ry

     iteration # 35     ecut=    90.00 Ry     beta= 0.70
     Davidson diagonalization with overlap
     ethr =  1.00E-13,  avg # of iterations =  1.0

     total cpu time spent up to now is      197.7 secs

     total energy              =    -926.01562041 Ry
     Harris-Foulkes estimate   =    -926.01562041 Ry
     estimated scf accuracy    <          2.1E-12 Ry

     iteration # 36     ecut=    90.00 Ry     beta= 0.70
     Davidson diagonalization with overlap
     ethr =  1.00E-13,  avg # of iterations =  1.0

     total cpu time spent up to now is      198.2 secs

     End of self-consistent calculation

          k = 0.0000 0.0000 0.0000 ( 19089 PWs)   bands (ev):

   -61.0553 -61.0536 -61.0464 -61.0447 -35.0310 -35.0288 -35.0215 -35.0170
   -34.9492 -34.9024 -34.8846 -34.8543 -34.8522 -34.8397 -34.8256 -34.8234
   -14.2587 -14.1453 -13.2768 -13.1296 -13.0624 -13.0600 -12.7106 -12.7048
   -12.5752 -12.5696  -1.1130  -1.1023  -1.0332  -0.9243  -0.8287  -0.4244
     0.2284   0.3179   0.4990   0.5839   0.7188   0.7610   0.8671   0.9139
     0.9772   1.0016   1.2717   1.3083   1.4056   1.4592   1.5660   1.5789
     1.7791   2.0090   2.1418   2.1698   2.2883   2.4669   2.4685   2.5557

          k = 0.0000 0.2544 0.0000 ( 19069 PWs)   bands (ev):

   -61.0553 -61.0535 -61.0464 -61.0447 -35.0316 -35.0294 -35.0230 -35.0185
   -34.9490 -34.9022 -34.8846 -34.8542 -34.8521 -34.8397 -34.8256 -34.8234
   -14.2123 -14.1068 -13.2336 -13.1125 -13.0613 -13.0451 -12.7261 -12.7016
   -12.5790 -12.5500  -1.1417  -1.1305  -1.0567  -0.9557  -0.9296  -0.5775
    -0.4435  -0.2065  -0.1659  -0.0328   0.4133   0.5410   0.5973   0.9575
     1.0639   1.2737   1.4272   1.4452   1.5828   1.6521   1.7781   1.8707
     2.1344   2.1422   2.1517   2.3236   2.3747   2.5663   2.6404   2.7209

          k = 0.3332 0.0000 0.0000 ( 19108 PWs)   bands (ev):

   -61.0517 -61.0499 -61.0472 -61.0455 -35.0256 -35.0235 -35.0199 -35.0165
   -34.9458 -34.9226 -34.9094 -34.9010 -34.8640 -34.8580 -34.8452 -34.8377
   -13.7349 -13.6074 -13.1880 -13.0264 -13.0223 -13.0183 -12.6534 -12.6533
   -12.6177 -12.5937  -1.5742  -1.5032  -0.8325  -0.7712  -0.7383  -0.3618
    -0.2676   0.0883   0.1067   0.3900   0.4025   0.4494   0.7714   0.8885
     0.9339   0.9646   0.9813   1.0667   1.2215   1.2382   1.4231   1.4601
     1.5194   1.9097   2.2051   2.2753   2.3999   2.5533   2.7421   2.7633

          k = 0.3332 0.2544 0.0000 ( 19106 PWs)   bands (ev):

   -61.0517 -61.0499 -61.0472 -61.0455 -35.0264 -35.0243 -35.0211 -35.0177
   -34.9456 -34.9225 -34.9092 -34.9008 -34.8640 -34.8580 -34.8452 -34.8377
   -13.6943 -13.5787 -13.1570 -13.0245 -13.0141 -13.0054 -12.6629 -12.6435
   -12.5893 -12.5670  -1.5726  -1.5005  -0.8689  -0.8256  -0.8077  -0.4635
    -0.4141  -0.2980  -0.1977  -0.0314   0.0358   0.1801   0.5263   0.5720
     0.6351   0.7171   0.8048   0.9007   0.9755   1.4204   1.6548   1.8239
     2.0402   2.1110   2.4209   2.6436   2.6509   2.7867   2.8708   2.8896

     highest occupied level (ev):     2.8896

!    total energy              =    -926.01562041 Ry
     Harris-Foulkes estimate   =    -926.01562041 Ry
     estimated scf accuracy    <          4.1E-13 Ry

     The total energy is the sum of the following terms:

     one-electron contribution =    -628.59413424 Ry
     hartree contribution      =     350.96283604 Ry
     xc contribution           =    -178.12664121 Ry
     ewald contribution        =    -470.25768100 Ry

     convergence has been achieved in  36 iterations

     Forces acting on atoms (cartesian axes, Ry/au):

     atom    1 type  1   force =     0.00000000   -0.00038972    0.00010375
     atom    2 type  1   force =     0.00000000    0.00038972   -0.00010375
     atom    3 type  1   force =     0.00000000    0.00038972    0.00010375
     atom    4 type  1   force =    -0.00000000   -0.00038972   -0.00010375
     atom    5 type  2   force =    -0.00000000   -0.00000049   -0.00004071
     atom    6 type  2   force =     0.00000000    0.00000049    0.00004071
     atom    7 type  2   force =     0.00000000    0.00000049   -0.00004071
     atom    8 type  2   force =    -0.00000000   -0.00000049    0.00004071
     atom    9 type  2   force =     0.00000000    0.00096754    0.00006019
     atom   10 type  2   force =    -0.00000000   -0.00096754   -0.00006019
     atom   11 type  2   force =    -0.00000000   -0.00096754    0.00006019
     atom   12 type  2   force =    -0.00000000   -0.00006557    0.00000000
     atom   13 type  2   force =     0.00000000    0.00006557    0.00000000
     atom   14 type  2   force =     0.00000000    0.00096754   -0.00006019

     Total force =     0.002104     Total SCF correction =     0.000001


     Computing stress (Cartesian axis) and pressure

          total   stress  (Ry/bohr**3)                   (kbar)     P=   -0.24
  -0.00000322   0.00000000   0.00000000         -0.47      0.00      0.00
   0.00000000  -0.00000030   0.00000000          0.00     -0.04      0.00
   0.00000000   0.00000000  -0.00000127          0.00      0.00     -0.19


     Writing output data file v2o5.save/

     init_run     :      1.67s CPU      1.71s WALL (       2 calls)
     electrons    :    180.47s CPU    183.66s WALL (       7 calls)
     update_pot   :      3.23s CPU      3.26s WALL (       5 calls)
     forces       :      3.61s CPU      3.69s WALL (       7 calls)
     stress       :      6.36s CPU      6.41s WALL (       7 calls)

     Called by init_run:
     wfcinit      :      0.66s CPU      0.67s WALL (       2 calls)
     potinit      :      0.40s CPU      0.42s WALL (       2 calls)
     hinit0       :      0.55s CPU      0.55s WALL (       2 calls)

     Called by electrons:
     c_bands      :    157.52s CPU    159.46s WALL (     222 calls)
     sum_band     :      9.31s CPU      9.46s WALL (     222 calls)
     v_of_rho     :     13.21s CPU     14.28s WALL (     227 calls)
     mix_rho      :      0.73s CPU      0.76s WALL (     222 calls)

     Called by c_bands:
     init_us_2    :      1.93s CPU      1.98s WALL (    1840 calls)
     cegterg      :    152.28s CPU    154.13s WALL (     888 calls)

     Called by sum_band:

     Called by *egterg:
     h_psi        :     85.21s CPU     86.19s WALL (    3662 calls)
     g_psi        :      0.32s CPU      0.32s WALL (    2766 calls)
     cdiaghg      :     24.10s CPU     24.72s WALL (    3626 calls)

     Called by h_psi:
     h_psi:pot    :     84.63s CPU     85.61s WALL (    3662 calls)
     h_psi:calbec :     25.76s CPU     26.25s WALL (    3662 calls)
     vloc_psi     :     40.73s CPU     41.20s WALL (    3662 calls)
     add_vuspsi   :     18.12s CPU     18.15s WALL (    3662 calls)

     General routines
     calbec       :     27.22s CPU     27.74s WALL (    3802 calls)
     fft          :      8.12s CPU      9.04s WALL (   14803 calls)
     ffts         :      0.14s CPU      0.14s WALL (     222 calls)
     fftw         :     44.17s CPU     44.70s WALL (  311926 calls)

     Parallel routines
     fft_scatt_xy :      3.85s CPU      3.91s WALL (  326951 calls)
     fft_scatt_yz :     27.73s CPU     28.71s WALL (  326951 calls)

     PWSCF        :   3m15.88s CPU   3m19.49s WALL


   This run was terminated on:  22: 6:47  18May2024            

=------------------------------------------------------------------------------=
   JOB DONE.
=------------------------------------------------------------------------------=
