
     Program PWSCF v.6.4.1 starts on 20May2024 at  3:30:27 

     This program is part of the open-source Quantum ESPRESSO suite
     for quantum simulation of materials; please cite
         "P. Giannozzi et al., J. Phys.:Condens. Matter 21 395502 (2009);
         "P. Giannozzi et al., J. Phys.:Condens. Matter 29 465901 (2017);
          URL http://www.quantum-espresso.org", 
     in publications or presentations arising from this work. More details at
     http://www.quantum-espresso.org/quote

     Parallel version (MPI), running on    32 processors

     MPI processes distributed on     1 nodes
     R & G space division:  proc/nbgrp/npool/nimage =      32
     Reading input from v16o40.rlx.in
Warning: card &CELL ignored
Warning: card     CELL_DYNAMICS  = "BFGS" ignored
Warning: card / ignored

     Current dimensions of program PWSCF are:
     Max number of different atomic species (ntypx) = 10
     Max number of k-points (npk) =  40000
     Max angular momentum in pseudopotentials (lmaxx) =  3
               file V.pbe-spnl-kjpaw_psl.1.0.0.UPF: wavefunction(s)  3P 3D renormalized
               file O.pbe-n-kjpaw_psl.1.0.0.UPF: wavefunction(s)  2S 2P renormalized

     -------------------------------------------------
     Parameters for Dispersion (Grimme-D2) Correction:
     -------------------------------------------------
       atom      VdW radius       C_6     

        V          2.952        374.666
        O          2.536         24.284

     Subspace diagonalization in iterative solution of the eigenvalue problem:
     one sub-group per band group will be used
     ELPA distributed-memory algorithm (size of sub-group:  4*  4 procs)

     Found symmetry operation: I + (  0.0000  0.5000  0.0000)
     This is a supercell, fractional translations are disabled

     Parallelization info
     --------------------
     sticks:   dense  smooth     PW     G-vecs:    dense   smooth      PW
     Min         358     143     38                42576    10773    1516
     Max         359     144     39                42583    10782    1523
     Sum       11479    4589   1239              1362541   344825   48629



     bravais-lattice index     =            8
     lattice parameter (alat)  =      13.3968  a.u.
     unit-cell volume          =    4868.8223 (a.u.)^3
     number of atoms/cell      =           56
     number of atomic types    =            2
     number of electrons       =       448.00
     number of Kohn-Sham states=          269
     kinetic-energy cutoff     =      65.0000  Ry
     charge density cutoff     =     650.0000  Ry
     convergence threshold     =      1.0E-09
     mixing beta               =       0.7000
     number of iterations used =            8  plain     mixing
     Exchange-correlation      = SLA PW PBX PBC ( 1  4  3  4 0 0)
     nstep                     =          500


     celldm(1)=  13.396828  celldm(2)=   1.235512  celldm(3)=   1.638970
     celldm(4)=   0.000000  celldm(5)=   0.000000  celldm(6)=   0.000000

     crystal axes: (cart. coord. in units of alat)
               a(1) = (   1.000000   0.000000   0.000000 )  
               a(2) = (   0.000000   1.235512   0.000000 )  
               a(3) = (   0.000000   0.000000   1.638970 )  

     reciprocal axes: (cart. coord. in units 2 pi/alat)
               b(1) = (  1.000000  0.000000  0.000000 )  
               b(2) = (  0.000000  0.809381  0.000000 )  
               b(3) = (  0.000000  0.000000  0.610139 )  


     PseudoPot. # 1 for V  read from file:
     /home/mpicuntureo/pseudos/V.pbe-spnl-kjpaw_psl.1.0.0.UPF
     MD5 check sum: 069c5df6a0a9f40a694a86a6cab52b89
     Pseudo is Projector augmented-wave + core cor, Zval = 13.0
     Generated using "atomic" code by A. Dal Corso v.6.3
     Shape of augmentation charge: PSQ
     Using radial grid of 1181 points,  6 beta functions with: 
                l(1) =   0
                l(2) =   0
                l(3) =   1
                l(4) =   1
                l(5) =   2
                l(6) =   2
     Q(r) pseudized with 0 coefficients 


     PseudoPot. # 2 for O  read from file:
     /home/mpicuntureo/pseudos/O.pbe-n-kjpaw_psl.1.0.0.UPF
     MD5 check sum: e99d9cef9b487d1ca56f5b95ecd0fd7a
     Pseudo is Projector augmented-wave + core cor, Zval =  6.0
     Generated using "atomic" code by A. Dal Corso v.6.3
     Shape of augmentation charge: PSQ
     Using radial grid of 1095 points,  4 beta functions with: 
                l(1) =   0
                l(2) =   0
                l(3) =   1
                l(4) =   1
     Q(r) pseudized with 0 coefficients 


     atomic species   valence    mass     pseudopotential
        V             13.00    50.94150     V ( 1.00)
        O              6.00    15.99940     O ( 1.00)

      4 Sym. Ops. (no inversion) found



   Cartesian axes

     site n.     atom                  positions (alat units)
         1           V   tau(   1) = (   0.0000000   0.2364294   1.0621922  )
         2           V   tau(   2) = (   0.2500000   0.3813267   1.3962627  )
         3           V   tau(   3) = (   0.2500000   0.3813267   0.2427073  )
         4           V   tau(   4) = (   0.0000000   0.2364294   0.5767777  )
         5           O   tau(   5) = (   0.2500000   0.3045856   1.1164488  )
         6           O   tau(   6) = (   0.0000000   0.3131705   1.3420061  )
         7           O   tau(   7) = (   0.0000000   0.3131705   0.2969638  )
         8           O   tau(   8) = (   0.2500000   0.3045856   0.5225211  )
         9           O   tau(   9) = (   0.0000000   0.0117965   0.5799858  )
        10           O   tau(  10) = (   0.2500000   0.6059596   0.2394992  )
        11           O   tau(  11) = (   0.2500000   0.6059596   1.3994707  )
        12           O   tau(  12) = (   0.2500000   0.3152971   0.0000000  )
        13           O   tau(  13) = (   0.0000000   0.3024589   0.8194850  )
        14           O   tau(  14) = (   0.0000000   0.0117965   1.0589842  )
        15           V   tau(  15) = (   0.0000000   0.8541855   1.0621922  )
        16           V   tau(  16) = (   0.2500000   0.9990828   1.3962627  )
        17           V   tau(  17) = (   0.2500000   0.9990828   0.2427073  )
        18           V   tau(  18) = (   0.0000000   0.8541855   0.5767777  )
        19           O   tau(  19) = (   0.2500000   0.9223417   1.1164488  )
        20           O   tau(  20) = (   0.0000000   0.9309265   1.3420061  )
        21           O   tau(  21) = (   0.0000000   0.9309265   0.2969638  )
        22           O   tau(  22) = (   0.2500000   0.9223417   0.5225211  )
        23           O   tau(  23) = (   0.0000000   0.6295526   0.5799858  )
        24           O   tau(  24) = (   0.2500000   1.2237157   0.2394992  )
        25           O   tau(  25) = (   0.2500000   1.2237157   1.3994707  )
        26           O   tau(  26) = (   0.2500000   0.9330532   0.0000000  )
        27           O   tau(  27) = (   0.0000000   0.9202150   0.8194850  )
        28           O   tau(  28) = (   0.0000000   0.6295526   1.0589842  )
        29           V   tau(  29) = (   0.5000000   0.2364294   1.0621922  )
        30           V   tau(  30) = (   0.7500000   0.3813267   1.3962627  )
        31           V   tau(  31) = (   0.7500000   0.3813267   0.2427073  )
        32           V   tau(  32) = (   0.5000000   0.2364294   0.5767777  )
        33           O   tau(  33) = (   0.7500000   0.3045856   1.1164488  )
        34           O   tau(  34) = (   0.5000000   0.3131705   1.3420061  )
        35           O   tau(  35) = (   0.5000000   0.3131705   0.2969638  )
        36           O   tau(  36) = (   0.7500000   0.3045856   0.5225211  )
        37           O   tau(  37) = (   0.5000000   0.0117965   0.5799858  )
        38           O   tau(  38) = (   0.7500000   0.6059596   0.2394992  )
        39           O   tau(  39) = (   0.7500000   0.6059596   1.3994707  )
        40           O   tau(  40) = (   0.7500000   0.3152971   0.0000000  )
        41           O   tau(  41) = (   0.5000000   0.3024589   0.8194850  )
        42           O   tau(  42) = (   0.5000000   0.0117965   1.0589842  )
        43           V   tau(  43) = (   0.5000000   0.8541855   1.0621922  )
        44           V   tau(  44) = (   0.7500000   0.9990828   1.3962627  )
        45           V   tau(  45) = (   0.7500000   0.9990828   0.2427073  )
        46           V   tau(  46) = (   0.5000000   0.8541855   0.5767777  )
        47           O   tau(  47) = (   0.7500000   0.9223417   1.1164488  )
        48           O   tau(  48) = (   0.5000000   0.9309265   1.3420061  )
        49           O   tau(  49) = (   0.5000000   0.9309265   0.2969638  )
        50           O   tau(  50) = (   0.7500000   0.9223417   0.5225211  )
        51           O   tau(  51) = (   0.5000000   0.6295526   0.5799858  )
        52           O   tau(  52) = (   0.7500000   1.2237157   0.2394992  )
        53           O   tau(  53) = (   0.7500000   1.2237157   1.3994707  )
        54           O   tau(  54) = (   0.7500000   0.9330532   0.0000000  )
        55           O   tau(  55) = (   0.5000000   0.9202150   0.8194850  )
        56           O   tau(  56) = (   0.5000000   0.6295526   1.0589842  )

     number of k points=     8  gaussian smearing, width (Ry)=  0.0500
                       cart. coord. in units 2pi/alat
        k(    1) = (   0.0000000   0.0000000   0.0000000), wk =   0.2500000
        k(    2) = (   0.0000000   0.0000000  -0.3050697), wk =   0.2500000
        k(    3) = (   0.0000000  -0.4046905   0.0000000), wk =   0.2500000
        k(    4) = (   0.0000000  -0.4046905  -0.3050697), wk =   0.2500000
        k(    5) = (  -0.5000000   0.0000000   0.0000000), wk =   0.2500000
        k(    6) = (  -0.5000000   0.0000000  -0.3050697), wk =   0.2500000
        k(    7) = (  -0.5000000  -0.4046905   0.0000000), wk =   0.2500000
        k(    8) = (  -0.5000000  -0.4046905  -0.3050697), wk =   0.2500000

     Dense  grid:  1362541 G-vectors     FFT dimensions: ( 120, 135, 180)

     Smooth grid:   344825 G-vectors     FFT dimensions: (  72,  90, 120)

     Estimated max dynamical RAM per process >     325.59 MB

     Estimated total dynamical RAM >      10.17 GB

     Check: negative core charge=   -0.000001

     Initial potential from superposition of free atoms

     starting charge  447.98541, renormalised to  448.00000
     Starting wfcs are  320 randomized atomic wfcs
     Checking if some PAW data can be deallocated... 

     total cpu time spent up to now is       50.2 secs

     Self-consistent Calculation

     iteration #  1     ecut=    65.00 Ry     beta= 0.70
     Davidson diagonalization with overlap
     ethr =  1.00E-02,  avg # of iterations =  2.0

     total cpu time spent up to now is      155.5 secs

     total energy              =   -5072.65808508 Ry
     Harris-Foulkes estimate   =   -5100.28974171 Ry
     estimated scf accuracy    <      34.04271307 Ry

     iteration #  2     ecut=    65.00 Ry     beta= 0.70
     Davidson diagonalization with overlap
     ethr =  7.60E-03,  avg # of iterations =  4.2

     total cpu time spent up to now is      443.8 secs

     total energy              =   -5031.52216662 Ry
     Harris-Foulkes estimate   =   -5177.71366052 Ry
     estimated scf accuracy    <     671.47533917 Ry

     iteration #  3     ecut=    65.00 Ry     beta= 0.70
     Davidson diagonalization with overlap
     ethr =  7.60E-03,  avg # of iterations =  5.0

     total cpu time spent up to now is      803.2 secs

     total energy              =   -5094.37215982 Ry
     Harris-Foulkes estimate   =   -5097.42702992 Ry
     estimated scf accuracy    <       9.80584633 Ry

     iteration #  4     ecut=    65.00 Ry     beta= 0.70
     Davidson diagonalization with overlap
     ethr =  2.19E-03,  avg # of iterations =  1.8

     negative rho (up, down):  4.750E-05 0.000E+00

     total cpu time spent up to now is      931.8 secs

     total energy              =   -5094.58734087 Ry
     Harris-Foulkes estimate   =   -5095.05646582 Ry
     estimated scf accuracy    <       2.46434028 Ry

     iteration #  5     ecut=    65.00 Ry     beta= 0.70
     Davidson diagonalization with overlap
     ethr =  5.50E-04,  avg # of iterations =  4.8

     negative rho (up, down):  1.434E-04 0.000E+00

     total cpu time spent up to now is     1165.8 secs

     total energy              =   -5095.18027486 Ry
     Harris-Foulkes estimate   =   -5095.43131720 Ry
     estimated scf accuracy    <       1.33456239 Ry

     iteration #  6     ecut=    65.00 Ry     beta= 0.70
     Davidson diagonalization with overlap
     ethr =  2.98E-04,  avg # of iterations =  1.0

     negative rho (up, down):  5.351E-04 0.000E+00

     total cpu time spent up to now is     1295.4 secs

     total energy              =   -5095.03380946 Ry
     Harris-Foulkes estimate   =   -5095.23698561 Ry
     estimated scf accuracy    <       0.77238428 Ry

     iteration #  7     ecut=    65.00 Ry     beta= 0.70
     Davidson diagonalization with overlap
     ethr =  1.72E-04,  avg # of iterations =  5.0

     negative rho (up, down):  9.719E-04 0.000E+00

     total cpu time spent up to now is     1549.6 secs

     total energy              =   -5094.97519308 Ry
     Harris-Foulkes estimate   =   -5095.61175540 Ry
     estimated scf accuracy    <       2.39753625 Ry

     iteration #  8     ecut=    65.00 Ry     beta= 0.70
     Davidson diagonalization with overlap
     ethr =  1.72E-04,  avg # of iterations =  3.8

     negative rho (up, down):  1.100E-03 0.000E+00

     total cpu time spent up to now is     1693.2 secs

     total energy              =   -5095.04685089 Ry
     Harris-Foulkes estimate   =   -5095.11590785 Ry
     estimated scf accuracy    <       0.55909591 Ry

     iteration #  9     ecut=    65.00 Ry     beta= 0.70
     Davidson diagonalization with overlap
     ethr =  1.25E-04,  avg # of iterations =  4.9

     negative rho (up, down):  1.180E-03 0.000E+00

     total cpu time spent up to now is     1907.3 secs

     total energy              =   -5095.19535934 Ry
     Harris-Foulkes estimate   =   -5095.19761551 Ry
     estimated scf accuracy    <       0.02346558 Ry

     iteration # 10     ecut=    65.00 Ry     beta= 0.70
     Davidson diagonalization with overlap
     ethr =  5.24E-06,  avg # of iterations =  4.5

     negative rho (up, down):  1.224E-03 0.000E+00

     total cpu time spent up to now is     2063.9 secs

     total energy              =   -5095.19850817 Ry
     Harris-Foulkes estimate   =   -5095.20038180 Ry
     estimated scf accuracy    <       0.00839250 Ry

     iteration # 11     ecut=    65.00 Ry     beta= 0.70
     Davidson diagonalization with overlap
     c_bands:  1 eigenvalues not converged
     ethr =  1.87E-06,  avg # of iterations = 12.4

     negative rho (up, down):  1.247E-03 0.000E+00

     total cpu time spent up to now is     2252.7 secs

     total energy              =   -5095.20006770 Ry
     Harris-Foulkes estimate   =   -5095.20071143 Ry
     estimated scf accuracy    <       0.00441084 Ry

     iteration # 12     ecut=    65.00 Ry     beta= 0.70
     Davidson diagonalization with overlap
     ethr =  9.85E-07,  avg # of iterations =  4.6

     negative rho (up, down):  1.292E-03 0.000E+00

     total cpu time spent up to now is     2392.2 secs

     total energy              =   -5095.20038815 Ry
     Harris-Foulkes estimate   =   -5095.20063322 Ry
     estimated scf accuracy    <       0.00210887 Ry

     iteration # 13     ecut=    65.00 Ry     beta= 0.70
     Davidson diagonalization with overlap
     ethr =  4.71E-07,  avg # of iterations =  5.0

     negative rho (up, down):  1.317E-03 0.000E+00

     total cpu time spent up to now is     2537.6 secs

     total energy              =   -5095.20037063 Ry
     Harris-Foulkes estimate   =   -5095.20065401 Ry
     estimated scf accuracy    <       0.00145409 Ry

     iteration # 14     ecut=    65.00 Ry     beta= 0.70
     Davidson diagonalization with overlap
     ethr =  3.25E-07,  avg # of iterations =  3.9

     negative rho (up, down):  1.326E-03 0.000E+00

     total cpu time spent up to now is     2672.8 secs

     total energy              =   -5095.20040483 Ry
     Harris-Foulkes estimate   =   -5095.20049335 Ry
     estimated scf accuracy    <       0.00055770 Ry

     iteration # 15     ecut=    65.00 Ry     beta= 0.70
     Davidson diagonalization with overlap
     ethr =  1.24E-07,  avg # of iterations =  6.1

     negative rho (up, down):  1.336E-03 0.000E+00

     total cpu time spent up to now is     2857.5 secs

     total energy              =   -5095.20047613 Ry
     Harris-Foulkes estimate   =   -5095.20051384 Ry
     estimated scf accuracy    <       0.00015396 Ry

     iteration # 16     ecut=    65.00 Ry     beta= 0.70
     Davidson diagonalization with overlap
     ethr =  3.44E-08,  avg # of iterations =  5.4

     negative rho (up, down):  1.339E-03 0.000E+00

     total cpu time spent up to now is     3006.3 secs

     total energy              =   -5095.20048975 Ry
     Harris-Foulkes estimate   =   -5095.20050023 Ry
     estimated scf accuracy    <       0.00003541 Ry

     iteration # 17     ecut=    65.00 Ry     beta= 0.70
     Davidson diagonalization with overlap
     ethr =  7.90E-09,  avg # of iterations =  5.0

     negative rho (up, down):  1.344E-03 0.000E+00

     total cpu time spent up to now is     3250.6 secs

     total energy              =   -5095.20049369 Ry
     Harris-Foulkes estimate   =   -5095.20051601 Ry
     estimated scf accuracy    <       0.00009662 Ry

     iteration # 18     ecut=    65.00 Ry     beta= 0.70
     Davidson diagonalization with overlap
     ethr =  7.90E-09,  avg # of iterations =  5.8

     negative rho (up, down):  1.345E-03 0.000E+00

     total cpu time spent up to now is     3393.2 secs

     total energy              =   -5095.20050142 Ry
     Harris-Foulkes estimate   =   -5095.20050363 Ry
     estimated scf accuracy    <       0.00000970 Ry

     iteration # 19     ecut=    65.00 Ry     beta= 0.70
     Davidson diagonalization with overlap
     ethr =  2.17E-09,  avg # of iterations =  4.2

     negative rho (up, down):  1.345E-03 0.000E+00

     total cpu time spent up to now is     3614.3 secs

     total energy              =   -5095.20050483 Ry
     Harris-Foulkes estimate   =   -5095.20050565 Ry
     estimated scf accuracy    <       0.00000474 Ry

     iteration # 20     ecut=    65.00 Ry     beta= 0.70
     Davidson diagonalization with overlap
     ethr =  1.06E-09,  avg # of iterations =  1.2

     negative rho (up, down):  1.346E-03 0.000E+00

     total cpu time spent up to now is     3741.4 secs

     total energy              =   -5095.20050473 Ry
     Harris-Foulkes estimate   =   -5095.20050511 Ry
     estimated scf accuracy    <       0.00000267 Ry

     iteration # 21     ecut=    65.00 Ry     beta= 0.70
     Davidson diagonalization with overlap
     ethr =  5.97E-10,  avg # of iterations =  3.4

     negative rho (up, down):  1.347E-03 0.000E+00

     total cpu time spent up to now is     3881.7 secs

     total energy              =   -5095.20050476 Ry
     Harris-Foulkes estimate   =   -5095.20050510 Ry
     estimated scf accuracy    <       0.00000160 Ry

     iteration # 22     ecut=    65.00 Ry     beta= 0.70
     Davidson diagonalization with overlap
     ethr =  3.57E-10,  avg # of iterations =  4.9

     negative rho (up, down):  1.347E-03 0.000E+00

     total cpu time spent up to now is     4026.6 secs

     total energy              =   -5095.20050486 Ry
     Harris-Foulkes estimate   =   -5095.20050510 Ry
     estimated scf accuracy    <       0.00000132 Ry

     iteration # 23     ecut=    65.00 Ry     beta= 0.70
     Davidson diagonalization with overlap
     ethr =  2.95E-10,  avg # of iterations =  3.9

     negative rho (up, down):  1.348E-03 0.000E+00

     total cpu time spent up to now is     4164.5 secs

     total energy              =   -5095.20050501 Ry
     Harris-Foulkes estimate   =   -5095.20050501 Ry
     estimated scf accuracy    <       0.00000013 Ry

     iteration # 24     ecut=    65.00 Ry     beta= 0.70
     Davidson diagonalization with overlap
     ethr =  2.80E-11,  avg # of iterations =  5.0

     negative rho (up, down):  1.348E-03 0.000E+00

     total cpu time spent up to now is     4439.0 secs

     total energy              =   -5095.20050510 Ry
     Harris-Foulkes estimate   =   -5095.20050512 Ry
     estimated scf accuracy    <       0.00000016 Ry

     iteration # 25     ecut=    65.00 Ry     beta= 0.70
     Davidson diagonalization with overlap
     ethr =  2.80E-11,  avg # of iterations =  1.9

     negative rho (up, down):  1.349E-03 0.000E+00

     total cpu time spent up to now is     4565.8 secs

     total energy              =   -5095.20050511 Ry
     Harris-Foulkes estimate   =   -5095.20050512 Ry
     estimated scf accuracy    <       0.00000005 Ry

     iteration # 26     ecut=    65.00 Ry     beta= 0.70
     Davidson diagonalization with overlap
     ethr =  1.18E-11,  avg # of iterations =  4.1

     negative rho (up, down):  1.349E-03 0.000E+00

     total cpu time spent up to now is     4744.4 secs

     total energy              =   -5095.20050512 Ry
     Harris-Foulkes estimate   =   -5095.20050512 Ry
     estimated scf accuracy    <       0.00000002 Ry

     iteration # 27     ecut=    65.00 Ry     beta= 0.70
     Davidson diagonalization with overlap
     ethr =  4.85E-12,  avg # of iterations =  1.9

     negative rho (up, down):  1.349E-03 0.000E+00

     total cpu time spent up to now is     4871.0 secs

     total energy              =   -5095.20050512 Ry
     Harris-Foulkes estimate   =   -5095.20050512 Ry
     estimated scf accuracy    <          9.7E-09 Ry

     iteration # 28     ecut=    65.00 Ry     beta= 0.70
     Davidson diagonalization with overlap
     ethr =  2.16E-12,  avg # of iterations =  4.0

     negative rho (up, down):  1.349E-03 0.000E+00

     total cpu time spent up to now is     5067.7 secs

     total energy              =   -5095.20050512 Ry
     Harris-Foulkes estimate   =   -5095.20050512 Ry
     estimated scf accuracy    <          7.2E-09 Ry

     iteration # 29     ecut=    65.00 Ry     beta= 0.70
     Davidson diagonalization with overlap
     ethr =  1.61E-12,  avg # of iterations =  1.1

     negative rho (up, down):  1.349E-03 0.000E+00

     total cpu time spent up to now is     5192.1 secs

     total energy              =   -5095.20050512 Ry
     Harris-Foulkes estimate   =   -5095.20050512 Ry
     estimated scf accuracy    <          1.6E-09 Ry

     iteration # 30     ecut=    65.00 Ry     beta= 0.70
     Davidson diagonalization with overlap
     ethr =  3.47E-13,  avg # of iterations =  4.0

     negative rho (up, down):  1.349E-03 0.000E+00

     total cpu time spent up to now is     5416.7 secs

     End of self-consistent calculation

          k = 0.0000 0.0000 0.0000 ( 43117 PWs)   bands (ev):

   -59.8187 -59.8186 -59.8168 -59.8167 -59.8110 -59.8110 -59.8110 -59.8110
   -59.8092 -59.8092 -59.8091 -59.8091 -59.8080 -59.8080 -59.8061 -59.8061
   -33.8223 -33.8199 -33.8193 -33.8168 -33.8163 -33.8133 -33.8133 -33.8107
   -33.8107 -33.8107 -33.8106 -33.8092 -33.8092 -33.8063 -33.8063 -33.8051
   -33.7447 -33.7440 -33.7361 -33.7361 -33.7356 -33.7356 -33.7087 -33.7087
   -33.7081 -33.7081 -33.6934 -33.6927 -33.6660 -33.6659 -33.6500 -33.6500
   -33.6499 -33.6499 -33.6359 -33.6356 -33.6335 -33.6332 -33.6237 -33.6237
   -33.6237 -33.6237 -33.6170 -33.6169 -33.6023 -33.6021 -33.5999 -33.5997
   -13.4391 -13.3212 -13.3122 -13.2110 -12.4552 -12.4552 -12.3776 -12.3776
   -12.3715 -12.2764 -12.2764 -12.2665 -12.2429 -12.2429 -12.2328 -12.1861
   -12.1424 -12.1374 -12.1056 -12.0780 -12.0381 -12.0381 -12.0143 -12.0143
   -11.7231 -11.7167 -11.7071 -11.6895 -11.6434 -11.6434 -11.6067 -11.6067
   -11.5629 -11.5629 -11.5609 -11.5316 -11.5289 -11.5289 -11.5088 -11.4681
    -0.4580  -0.4580  -0.4273  -0.4273  -0.2763  -0.2622  -0.2569  -0.2569
    -0.2436  -0.2436  -0.2231  -0.2188  -0.2031  -0.1976  -0.1891  -0.1274
    -0.0647  -0.0583   0.0854   0.0854   0.1012   0.1764   0.1764   0.3920
     0.4159   0.5040   0.5040   0.5432   0.5735   0.5735   0.5840   0.6615
     0.6701   0.6701   0.8236   0.8236   1.0144   1.0490   1.0490   1.2617
     1.2873   1.2873   1.3016   1.3288   1.3288   1.4018   1.4430   1.4430
     1.4612   1.4879   1.5654   1.6763   1.6763   1.7131   1.7131   1.7614
     1.7614   1.8061   1.8386   1.8447   1.8447   1.8882   1.9487   2.0500
     2.1330   2.1814   2.1878   2.2193   2.2601   2.2601   2.2652   2.3116
     2.3338   2.3716   2.3835   2.3835   2.4457   2.4457   2.4598   2.4811
     2.5208   2.6259   2.6932   2.7250   2.7447   2.7447   2.8107   2.9360
     2.9360   2.9720   2.9803   3.0728   3.0728   3.1153   3.1792   3.1936
     3.1936   3.2056   3.2065   3.2262   3.2396   3.3580   3.4060   3.4571
     3.4578   3.4578   3.4909   3.5179   3.5735   3.5759   3.5759   3.8168
     3.9004   3.9317   3.9317   4.0084   4.0084   4.0408   4.1618   4.1618
     5.9778   6.1276   6.1442   6.2820   6.4769   6.4769   6.5181   6.5181
     7.1780   7.1780   7.2662   7.2662   7.3874   7.4323   7.4875   7.4917
     7.5357   7.5791   7.6471   7.6572   7.6572   7.7035   7.7035   7.8068
     7.8586   7.8586   7.8703   7.8713   7.8713   7.8726   8.0730   8.1764
     8.2368   8.2368   8.2582   8.2582   8.2819   8.2819   8.2908   8.3252
     8.4640   8.4640   8.5979   8.5979   8.7150

          k = 0.0000 0.0000-0.3051 ( 43116 PWs)   bands (ev):

   -59.8178 -59.8178 -59.8177 -59.8177 -59.8110 -59.8110 -59.8110 -59.8110
   -59.8092 -59.8092 -59.8091 -59.8091 -59.8070 -59.8070 -59.8070 -59.8070
   -33.8212 -33.8212 -33.8180 -33.8180 -33.8137 -33.8137 -33.8134 -33.8134
   -33.8106 -33.8106 -33.8092 -33.8092 -33.8081 -33.8081 -33.8064 -33.8064
   -33.7351 -33.7351 -33.7346 -33.7346 -33.7259 -33.7259 -33.7254 -33.7254
   -33.7104 -33.7104 -33.7099 -33.7099 -33.6483 -33.6483 -33.6482 -33.6482
   -33.6347 -33.6347 -33.6345 -33.6345 -33.6343 -33.6343 -33.6342 -33.6342
   -33.6247 -33.6247 -33.6246 -33.6246 -33.6010 -33.6010 -33.6009 -33.6009
   -13.3802 -13.3802 -13.2694 -13.2694 -12.4529 -12.4529 -12.3747 -12.3747
   -12.2927 -12.2927 -12.2810 -12.2810 -12.2477 -12.2477 -12.2150 -12.2150
   -12.1291 -12.1291 -12.1159 -12.1159 -12.0354 -12.0354 -12.0123 -12.0123
   -11.7149 -11.7149 -11.7077 -11.7077 -11.6437 -11.6436 -11.6066 -11.6066
   -11.5629 -11.5629 -11.5431 -11.5431 -11.5289 -11.5289 -11.4868 -11.4868
    -0.4440  -0.4440  -0.4400  -0.4400  -0.2693  -0.2693  -0.2690  -0.2690
    -0.2405  -0.2405  -0.2378  -0.2378  -0.1961  -0.1961  -0.1633  -0.1633
    -0.0721  -0.0721   0.0460   0.0460   0.1662   0.1662   0.3485   0.3485
     0.4266   0.4266   0.5353   0.5353   0.5461   0.5461   0.5895   0.5895
     0.6087   0.6087   0.9745   0.9745   1.1158   1.1158   1.2527   1.2527
     1.3388   1.3388   1.3723   1.3723   1.3914   1.3914   1.4147   1.4147
     1.4300   1.4300   1.4631   1.4631   1.4634   1.4634   1.5279   1.5279
     1.8217   1.8217   1.9542   1.9542   1.9567   1.9567   2.0885   2.0885
     2.2729   2.2729   2.2900   2.2900   2.2974   2.2974   2.3018   2.3018
     2.3725   2.3725   2.4246   2.4246   2.4922   2.4922   2.4927   2.4927
     2.5362   2.5362   2.6054   2.6054   2.6106   2.6106   2.7303   2.7303
     2.8995   2.8995   2.9194   2.9194   2.9268   2.9268   3.1931   3.1931
     3.2186   3.2186   3.4131   3.4131   3.4168   3.4168   3.4174   3.4174
     3.4853   3.4853   3.5311   3.5311   3.6422   3.6422   3.6699   3.6699
     3.7596   3.7596   3.9698   3.9698   4.1327   4.1327   4.1357   4.1357
     6.0575   6.0575   6.2029   6.2029   6.5492   6.5492   6.5753   6.5753
     7.1499   7.1500   7.2204   7.2204   7.4416   7.4416   7.5157   7.5158
     7.5974   7.5974   7.6192   7.6192   7.7151   7.7151   7.7727   7.7727
     7.7845   7.7846   7.8247   7.8247   7.8519   7.8520   7.9262   7.9262
     8.1659   8.1659   8.2927   8.2927   8.3286   8.3286   8.4014   8.4014
     8.6114   8.6114   8.7249   8.7249   8.7652

          k = 0.0000-0.4047 0.0000 ( 43054 PWs)   bands (ev):

   -59.8186 -59.8186 -59.8167 -59.8167 -59.8110 -59.8110 -59.8110 -59.8110
   -59.8091 -59.8091 -59.8091 -59.8091 -59.8080 -59.8080 -59.8061 -59.8061
   -33.8208 -33.8208 -33.8185 -33.8185 -33.8136 -33.8136 -33.8113 -33.8113
   -33.8113 -33.8113 -33.8084 -33.8084 -33.8084 -33.8084 -33.8079 -33.8079
   -33.7443 -33.7443 -33.7358 -33.7358 -33.7358 -33.7358 -33.7084 -33.7084
   -33.7084 -33.7084 -33.6930 -33.6930 -33.6659 -33.6659 -33.6499 -33.6499
   -33.6499 -33.6499 -33.6357 -33.6357 -33.6334 -33.6334 -33.6237 -33.6237
   -33.6237 -33.6236 -33.6170 -33.6170 -33.6022 -33.6022 -33.5999 -33.5999
   -13.3808 -13.3808 -13.2619 -13.2619 -12.4151 -12.4151 -12.4151 -12.4151
   -12.3185 -12.3185 -12.2587 -12.2587 -12.2587 -12.2587 -12.2081 -12.2081
   -12.1399 -12.1399 -12.0928 -12.0928 -12.0267 -12.0267 -12.0267 -12.0267
   -11.7148 -11.7148 -11.7036 -11.7036 -11.5880 -11.5880 -11.5879 -11.5879
   -11.5863 -11.5863 -11.5863 -11.5863 -11.5206 -11.5206 -11.5166 -11.5165
    -0.4393  -0.4393  -0.4392  -0.4392  -0.2445  -0.2445  -0.2445  -0.2445
    -0.2401  -0.2401  -0.2261  -0.2261  -0.2257  -0.2256  -0.0917  -0.0917
     0.0100   0.0100   0.1257   0.1257   0.1257   0.1257   0.4369   0.4370
     0.5048   0.5048   0.6775   0.6775   0.6776   0.6776   0.7874   0.7874
     0.8630   0.8630   0.9678   0.9679   0.9679   0.9679   0.9715   0.9715
     0.9716   0.9716   0.9744   0.9744   1.2121   1.2121   1.2121   1.2121
     1.5363   1.5364   1.5664   1.5664   1.6171   1.6171   1.7143   1.7143
     1.7144   1.7144   1.9184   1.9184   1.9184   1.9184   1.9353   1.9353
     1.9354   1.9354   1.9970   1.9970   2.0821   2.0821   2.2366   2.2366
     2.3606   2.3606   2.4364   2.4364   2.6027   2.6028   2.6633   2.6633
     2.7754   2.7754   2.8475   2.8475   2.8475   2.8475   2.8959   2.8959
     2.8959   2.8959   2.9132   2.9132   3.1570   3.1570   3.2118   3.2118
     3.2144   3.2144   3.3134   3.3134   3.3349   3.3349   3.5669   3.5669
     3.5751   3.5751   3.5751   3.5751   3.7199   3.7199   3.7476   3.7476
     3.7476   3.7476   3.7974   3.7974   3.8656   3.8656   3.8656   3.8656
     6.0488   6.0488   6.2165   6.2165   6.4888   6.4889   6.4889   6.4889
     7.2198   7.2199   7.2199   7.2199   7.4304   7.4304   7.5202   7.5202
     7.5216   7.5216   7.7066   7.7066   7.7819   7.7819   7.7819   7.7819
     7.8192   7.8192   7.8192   7.8192   7.8954   7.8954   8.2240   8.2240
     8.2454   8.2454   8.2785   8.2785   8.2785   8.2785   8.3727   8.3727
     8.3727   8.3727   8.7362   8.7362   8.7561

          k = 0.0000-0.4047-0.3051 ( 43112 PWs)   bands (ev):

   -59.8178 -59.8178 -59.8178 -59.8178 -59.8110 -59.8110 -59.8110 -59.8110
   -59.8091 -59.8091 -59.8091 -59.8091 -59.8070 -59.8070 -59.8070 -59.8070
   -33.8197 -33.8197 -33.8197 -33.8197 -33.8113 -33.8113 -33.8112 -33.8112
   -33.8109 -33.8109 -33.8109 -33.8109 -33.8084 -33.8084 -33.8084 -33.8084
   -33.7349 -33.7349 -33.7349 -33.7349 -33.7257 -33.7257 -33.7257 -33.7257
   -33.7101 -33.7101 -33.7101 -33.7101 -33.6482 -33.6482 -33.6482 -33.6482
   -33.6346 -33.6346 -33.6346 -33.6346 -33.6343 -33.6343 -33.6343 -33.6343
   -33.6247 -33.6247 -33.6247 -33.6247 -33.6010 -33.6010 -33.6010 -33.6010
   -13.3252 -13.3252 -13.3252 -13.3252 -12.4126 -12.4126 -12.4126 -12.4126
   -12.2635 -12.2635 -12.2635 -12.2635 -12.2527 -12.2527 -12.2527 -12.2527
   -12.1232 -12.1232 -12.1231 -12.1231 -12.0244 -12.0244 -12.0244 -12.0244
   -11.7105 -11.7105 -11.7104 -11.7104 -11.5881 -11.5881 -11.5881 -11.5881
   -11.5863 -11.5863 -11.5863 -11.5862 -11.5173 -11.5173 -11.5173 -11.5173
    -0.4379  -0.4379  -0.4379  -0.4379  -0.2521  -0.2521  -0.2521  -0.2521
    -0.2331  -0.2331  -0.2331  -0.2331  -0.1908  -0.1908  -0.1908  -0.1907
     0.1078   0.1078   0.1078   0.1078   0.2077   0.2077   0.2077   0.2077
     0.6726   0.6726   0.6726   0.6726   0.7728   0.7728   0.7728   0.7728
     0.8080   0.8080   0.8080   0.8080   0.9567   0.9567   0.9567   0.9567
     1.0671   1.0671   1.0671   1.0671   1.2425   1.2425   1.2425   1.2425
     1.5904   1.5904   1.5904   1.5904   1.6314   1.6314   1.6315   1.6315
     1.7100   1.7100   1.7100   1.7100   1.8140   1.8140   1.8141   1.8141
     2.1073   2.1073   2.1073   2.1073   2.2938   2.2938   2.2938   2.2938
     2.5044   2.5044   2.5044   2.5044   2.5207   2.5207   2.5207   2.5207
     2.5979   2.5979   2.5979   2.5979   2.7255   2.7255   2.7255   2.7255
     3.2128   3.2128   3.2128   3.2128   3.2196   3.2196   3.2196   3.2196
     3.2433   3.2434   3.2434   3.2434   3.3730   3.3730   3.3730   3.3730
     3.5010   3.5010   3.5010   3.5010   3.7565   3.7565   3.7565   3.7565
     3.8238   3.8238   3.8238   3.8238   3.8595   3.8595   3.8595   3.8595
     6.1296   6.1296   6.1296   6.1296   6.5600   6.5600   6.5600   6.5600
     7.1771   7.1771   7.1772   7.1772   7.4794   7.4794   7.4794   7.4794
     7.7177   7.7177   7.7177   7.7177   7.7512   7.7512   7.7512   7.7512
     7.8213   7.8213   7.8213   7.8213   7.8376   7.8376   7.8376   7.8376
     8.2264   8.2264   8.2264   8.2264   8.4044   8.4044   8.4044   8.4044
     8.7434   8.7434   8.7434   8.7434   8.8074

          k =-0.5000 0.0000 0.0000 ( 43106 PWs)   bands (ev):

   -59.8159 -59.8159 -59.8159 -59.8158 -59.8141 -59.8141 -59.8140 -59.8140
   -59.8084 -59.8084 -59.8084 -59.8084 -59.8066 -59.8066 -59.8065 -59.8065
   -33.8191 -33.8191 -33.8168 -33.8168 -33.8156 -33.8156 -33.8139 -33.8139
   -33.8135 -33.8135 -33.8091 -33.8091 -33.8087 -33.8087 -33.8039 -33.8039
   -33.7421 -33.7421 -33.7415 -33.7415 -33.6974 -33.6974 -33.6971 -33.6971
   -33.6968 -33.6968 -33.6962 -33.6962 -33.6748 -33.6748 -33.6744 -33.6744
   -33.6423 -33.6423 -33.6422 -33.6422 -33.6286 -33.6286 -33.6285 -33.6285
   -33.6199 -33.6199 -33.6198 -33.6198 -33.6130 -33.6130 -33.6129 -33.6129
   -13.0861 -13.0861 -12.9760 -12.9760 -12.9483 -12.9483 -12.8594 -12.8594
   -12.2649 -12.2649 -12.1837 -12.1837 -12.1066 -12.1066 -12.1028 -12.1028
   -12.0901 -12.0901 -12.0850 -12.0850 -12.0729 -12.0729 -12.0481 -12.0481
   -11.6791 -11.6791 -11.6666 -11.6666 -11.6664 -11.6664 -11.6341 -11.6341
   -11.6042 -11.6042 -11.5558 -11.5558 -11.5128 -11.5127 -11.4745 -11.4745
    -0.7147  -0.7147  -0.6869  -0.6869  -0.6834  -0.6834  -0.6529  -0.6529
    -0.0544  -0.0544  -0.0543  -0.0543  -0.0185  -0.0185   0.0198   0.0198
     0.0581   0.0581   0.1002   0.1002   0.2032   0.2032   0.4191   0.4191
     0.4843   0.4843   0.5792   0.5792   0.6719   0.6719   0.6842   0.6842
     0.7947   0.7947   0.9082   0.9082   0.9465   0.9465   0.9959   0.9959
     1.0883   1.0883   1.2217   1.2217   1.3971   1.3971   1.4501   1.4501
     1.4964   1.4964   1.6321   1.6321   1.6744   1.6744   1.7243   1.7243
     1.9281   1.9281   2.1293   2.1293   2.1643   2.1643   2.2016   2.2016
     2.2162   2.2162   2.2195   2.2195   2.2199   2.2199   2.2370   2.2370
     2.2584   2.2584   2.2742   2.2742   2.4309   2.4309   2.4481   2.4481
     2.5614   2.5614   2.5743   2.5743   2.6370   2.6370   2.6885   2.6885
     2.8206   2.8206   3.0474   3.0474   3.0629   3.0629   3.1886   3.1886
     3.2041   3.2041   3.3755   3.3755   3.4508   3.4508   3.4735   3.4735
     3.7375   3.7375   3.7608   3.7608   3.7742   3.7742   3.7994   3.7994
     3.9278   3.9278   3.9603   3.9603   3.9933   3.9933   4.0535   4.0535
     6.2658   6.2658   6.3224   6.3225   6.4899   6.4899   6.4902   6.4902
     7.3355   7.3355   7.3549   7.3549   7.3630   7.3630   7.3725   7.3725
     7.4228   7.4228   7.6203   7.6203   7.6931   7.6931   7.7155   7.7155
     7.7473   7.7473   7.8336   7.8336   7.8768   7.8768   7.9675   7.9675
     7.9845   7.9845   8.0413   8.0413   8.0470   8.0470   8.1014   8.1014
     8.1017   8.1017   8.1486   8.1486   8.1727

          k =-0.5000 0.0000-0.3051 ( 43120 PWs)   bands (ev):

   -59.8151 -59.8151 -59.8151 -59.8151 -59.8150 -59.8150 -59.8150 -59.8150
   -59.8074 -59.8074 -59.8074 -59.8074 -59.8073 -59.8073 -59.8073 -59.8073
   -33.8181 -33.8181 -33.8181 -33.8181 -33.8147 -33.8147 -33.8147 -33.8147
   -33.8115 -33.8115 -33.8115 -33.8115 -33.8064 -33.8064 -33.8064 -33.8064
   -33.7271 -33.7271 -33.7271 -33.7271 -33.7266 -33.7266 -33.7266 -33.7266
   -33.6795 -33.6795 -33.6795 -33.6795 -33.6791 -33.6791 -33.6791 -33.6791
   -33.6315 -33.6315 -33.6315 -33.6315 -33.6315 -33.6315 -33.6315 -33.6315
   -33.6191 -33.6191 -33.6191 -33.6191 -33.6190 -33.6190 -33.6190 -33.6190
   -13.0240 -13.0240 -13.0240 -13.0240 -12.9224 -12.9224 -12.9224 -12.9224
   -12.1659 -12.1659 -12.1659 -12.1659 -12.1132 -12.1132 -12.1132 -12.1132
   -12.1023 -12.1023 -12.1023 -12.1023 -12.0857 -12.0857 -12.0857 -12.0857
   -11.6776 -11.6776 -11.6776 -11.6776 -11.6521 -11.6521 -11.6521 -11.6521
   -11.5739 -11.5739 -11.5739 -11.5739 -11.4916 -11.4916 -11.4916 -11.4916
    -0.7029  -0.7029  -0.7029  -0.7029  -0.6767  -0.6767  -0.6767  -0.6767
    -0.0635  -0.0635  -0.0635  -0.0635   0.0168   0.0168   0.0168   0.0168
     0.0820   0.0820   0.0820   0.0820   0.3811   0.3811   0.3811   0.3811
     0.4813   0.4813   0.4813   0.4813   0.6594   0.6594   0.6594   0.6594
     0.7808   0.7808   0.7808   0.7808   0.9470   0.9470   0.9470   0.9470
     1.2602   1.2602   1.2602   1.2602   1.3597   1.3597   1.3597   1.3597
     1.5055   1.5055   1.5055   1.5055   1.9891   1.9891   1.9891   1.9891
     2.0152   2.0152   2.0152   2.0152   2.1778   2.1778   2.1778   2.1778
     2.1786   2.1786   2.1786   2.1786   2.2247   2.2247   2.2247   2.2248
     2.2536   2.2536   2.2536   2.2536   2.3672   2.3672   2.3672   2.3672
     2.5492   2.5492   2.5492   2.5492   2.6929   2.6929   2.6929   2.6929
     2.7678   2.7678   2.7678   2.7678   3.2608   3.2608   3.2608   3.2608
     3.3146   3.3146   3.3146   3.3146   3.3989   3.3989   3.3989   3.3989
     3.7484   3.7484   3.7484   3.7484   3.7496   3.7496   3.7496   3.7496
     3.9907   3.9907   3.9907   3.9907   4.0279   4.0279   4.0279   4.0279
     6.4058   6.4058   6.4058   6.4058   6.4133   6.4133   6.4133   6.4133
     7.3570   7.3570   7.3570   7.3570   7.4077   7.4077   7.4077   7.4077
     7.4738   7.4738   7.4738   7.4738   7.7480   7.7480   7.7480   7.7480
     7.7615   7.7615   7.7615   7.7615   7.9131   7.9131   7.9132   7.9132
     7.9995   7.9995   7.9995   7.9995   8.0514   8.0514   8.0514   8.0514
     8.1046   8.1046   8.1046   8.1046   8.1946

          k =-0.5000-0.4047 0.0000 ( 43128 PWs)   bands (ev):

   -59.8159 -59.8159 -59.8159 -59.8159 -59.8140 -59.8140 -59.8140 -59.8140
   -59.8084 -59.8084 -59.8084 -59.8084 -59.8065 -59.8065 -59.8065 -59.8065
   -33.8173 -33.8173 -33.8173 -33.8173 -33.8151 -33.8151 -33.8151 -33.8151
   -33.8114 -33.8114 -33.8114 -33.8114 -33.8065 -33.8065 -33.8065 -33.8065
   -33.7418 -33.7418 -33.7418 -33.7418 -33.6973 -33.6973 -33.6973 -33.6973
   -33.6965 -33.6965 -33.6965 -33.6965 -33.6746 -33.6746 -33.6746 -33.6746
   -33.6423 -33.6423 -33.6423 -33.6423 -33.6286 -33.6286 -33.6286 -33.6286
   -33.6199 -33.6198 -33.6198 -33.6198 -33.6130 -33.6130 -33.6130 -33.6130
   -13.0313 -13.0313 -13.0313 -13.0313 -12.9038 -12.9037 -12.9037 -12.9037
   -12.2217 -12.2217 -12.2217 -12.2217 -12.1000 -12.0999 -12.0999 -12.0999
   -12.0932 -12.0932 -12.0932 -12.0932 -12.0612 -12.0612 -12.0612 -12.0612
   -11.6665 -11.6665 -11.6665 -11.6665 -11.6575 -11.6575 -11.6575 -11.6575
   -11.5409 -11.5409 -11.5409 -11.5409 -11.5357 -11.5357 -11.5357 -11.5357
    -0.7020  -0.7020  -0.7020  -0.7020  -0.6686  -0.6686  -0.6686  -0.6686
    -0.0484  -0.0484  -0.0484  -0.0484   0.0678   0.0678   0.0678   0.0678
     0.1303   0.1303   0.1303   0.1303   0.4928   0.4928   0.4928   0.4928
     0.6545   0.6545   0.6545   0.6545   0.7002   0.7002   0.7002   0.7002
     0.7349   0.7349   0.7349   0.7349   0.9833   0.9833   0.9833   0.9833
     1.0814   1.0814   1.0814   1.0814   1.0849   1.0849   1.0849   1.0849
     1.6397   1.6397   1.6397   1.6397   1.6724   1.6724   1.6724   1.6724
     1.8781   1.8781   1.8781   1.8781   1.9276   1.9276   1.9277   1.9277
     2.1937   2.1937   2.1937   2.1937   2.2196   2.2196   2.2196   2.2196
     2.2937   2.2937   2.2937   2.2937   2.5339   2.5339   2.5340   2.5340
     2.5783   2.5783   2.5783   2.5783   2.8507   2.8507   2.8507   2.8507
     3.0212   3.0212   3.0212   3.0212   3.1663   3.1663   3.1663   3.1663
     3.5146   3.5146   3.5146   3.5146   3.5442   3.5442   3.5442   3.5442
     3.6135   3.6135   3.6135   3.6135   3.7568   3.7568   3.7568   3.7568
     3.8271   3.8271   3.8271   3.8271   3.8960   3.8960   3.8960   3.8960
     6.2989   6.2989   6.2989   6.2989   6.4894   6.4894   6.4894   6.4894
     7.3563   7.3563   7.3563   7.3563   7.3974   7.3974   7.3974   7.3974
     7.4833   7.4833   7.4833   7.4833   7.7864   7.7864   7.7864   7.7864
     7.8062   7.8062   7.8062   7.8062   7.8654   7.8654   7.8654   7.8654
     8.0369   8.0369   8.0369   8.0369   8.1092   8.1092   8.1092   8.1092
     8.1147   8.1147   8.1147   8.1147   8.2650

          k =-0.5000-0.4047-0.3051 ( 43072 PWs)   bands (ev):

   -59.8151 -59.8151 -59.8151 -59.8151 -59.8151 -59.8151 -59.8151 -59.8151
   -59.8074 -59.8074 -59.8073 -59.8073 -59.8073 -59.8073 -59.8073 -59.8073
   -33.8164 -33.8164 -33.8164 -33.8164 -33.8164 -33.8164 -33.8164 -33.8164
   -33.8090 -33.8090 -33.8090 -33.8090 -33.8090 -33.8090 -33.8090 -33.8090
   -33.7268 -33.7268 -33.7268 -33.7268 -33.7268 -33.7268 -33.7268 -33.7268
   -33.6793 -33.6793 -33.6793 -33.6793 -33.6793 -33.6793 -33.6793 -33.6793
   -33.6315 -33.6315 -33.6315 -33.6315 -33.6315 -33.6315 -33.6315 -33.6315
   -33.6191 -33.6190 -33.6190 -33.6190 -33.6190 -33.6190 -33.6190 -33.6190
   -12.9733 -12.9733 -12.9733 -12.9733 -12.9733 -12.9733 -12.9733 -12.9733
   -12.1364 -12.1364 -12.1364 -12.1364 -12.1363 -12.1363 -12.1363 -12.1363
   -12.0964 -12.0964 -12.0964 -12.0964 -12.0964 -12.0964 -12.0964 -12.0964
   -11.6631 -11.6631 -11.6631 -11.6631 -11.6631 -11.6631 -11.6631 -11.6631
   -11.5367 -11.5367 -11.5367 -11.5367 -11.5367 -11.5367 -11.5367 -11.5367
    -0.6905  -0.6905  -0.6905  -0.6905  -0.6905  -0.6905  -0.6905  -0.6905
    -0.0094  -0.0094  -0.0094  -0.0094  -0.0094  -0.0094  -0.0094  -0.0094
     0.3323   0.3323   0.3323   0.3323   0.3323   0.3323   0.3323   0.3323
     0.6262   0.6262   0.6262   0.6262   0.6262   0.6262   0.6262   0.6262
     0.9169   0.9169   0.9169   0.9169   0.9169   0.9169   0.9169   0.9169
     1.0548   1.0548   1.0548   1.0548   1.0549   1.0549   1.0549   1.0549
     1.6507   1.6507   1.6507   1.6507   1.6508   1.6508   1.6508   1.6508
     2.0495   2.0495   2.0495   2.0495   2.0495   2.0495   2.0495   2.0495
     2.1729   2.1729   2.1729   2.1729   2.1729   2.1729   2.1730   2.1730
     2.3125   2.3125   2.3125   2.3125   2.3125   2.3125   2.3125   2.3125
     2.7033   2.7033   2.7033   2.7033   2.7033   2.7033   2.7033   2.7033
     3.1032   3.1032   3.1032   3.1032   3.1032   3.1032   3.1032   3.1032
     3.5204   3.5204   3.5204   3.5204   3.5204   3.5204   3.5204   3.5204
     3.6926   3.6926   3.6926   3.6926   3.6926   3.6926   3.6926   3.6926
     3.8766   3.8766   3.8766   3.8766   3.8766   3.8766   3.8766   3.8766
     6.4119   6.4119   6.4119   6.4119   6.4119   6.4119   6.4119   6.4119
     7.3817   7.3817   7.3817   7.3817   7.3817   7.3817   7.3817   7.3817
     7.6195   7.6195   7.6195   7.6195   7.6195   7.6196   7.6196   7.6196
     7.8558   7.8558   7.8558   7.8558   7.8559   7.8559   7.8559   7.8559
     8.0352   8.0352   8.0352   8.0352   8.0352   8.0352   8.0352   8.0352
     8.1680   8.1680   8.1680   8.1680   8.1680

     the Fermi energy is     5.1437 ev

!    total energy              =   -5095.20050512 Ry
     Harris-Foulkes estimate   =   -5095.20050512 Ry
     estimated scf accuracy    <          6.2E-10 Ry

     total all-electron energy =    -36402.616174 Ry

     The total energy is the sum of the following terms:

     one-electron contribution =   -2302.92024609 Ry
     hartree contribution      =    1326.66139581 Ry
     xc contribution           =    -619.58008164 Ry
     ewald contribution        =   -1997.24951581 Ry
     Dispersion Correction     =      -0.52842284 Ry
     one-center paw contrib.   =   -1501.55841583 Ry
     smearing contrib. (-TS)   =      -0.02521872 Ry

     convergence has been achieved in  30 iterations

     negative rho (up, down):  1.349E-03 0.000E+00

     Forces acting on atoms (cartesian axes, Ry/au):

     atom    1 type  1   force =     0.00000000   -0.00079134   -0.00218754
     atom    2 type  1   force =     0.00000227    0.00071280    0.00219073
     atom    3 type  1   force =     0.00000227    0.00071280   -0.00219073
     atom    4 type  1   force =     0.00000000   -0.00079134    0.00218754
     atom    5 type  2   force =     0.00000018    0.00126621    0.00038155
     atom    6 type  2   force =     0.00000000   -0.00126492   -0.00038254
     atom    7 type  2   force =     0.00000000   -0.00126492    0.00038254
     atom    8 type  2   force =     0.00000018    0.00126621   -0.00038155
     atom    9 type  2   force =     0.00000000   -0.00088681   -0.00032166
     atom   10 type  2   force =    -0.00000009    0.00088192    0.00032198
     atom   11 type  2   force =    -0.00000009    0.00088192   -0.00032198
     atom   12 type  2   force =    -0.00000005   -0.00050300    0.00000000
     atom   13 type  2   force =     0.00000000    0.00050217    0.00000000
     atom   14 type  2   force =     0.00000000   -0.00088681    0.00032166
     atom   15 type  1   force =     0.00000000   -0.00071183   -0.00218865
     atom   16 type  1   force =    -0.00000065    0.00079259    0.00219016
     atom   17 type  1   force =    -0.00000065    0.00079259   -0.00219016
     atom   18 type  1   force =     0.00000000   -0.00071183    0.00218865
     atom   19 type  2   force =     0.00000022    0.00126491    0.00038253
     atom   20 type  2   force =     0.00000000   -0.00126645   -0.00038155
     atom   21 type  2   force =     0.00000000   -0.00126645    0.00038155
     atom   22 type  2   force =     0.00000022    0.00126491   -0.00038253
     atom   23 type  2   force =     0.00000000   -0.00088059   -0.00032187
     atom   24 type  2   force =    -0.00000001    0.00088731    0.00032195
     atom   25 type  2   force =    -0.00000001    0.00088731   -0.00032195
     atom   26 type  2   force =    -0.00000001   -0.00050302    0.00000000
     atom   27 type  2   force =     0.00000000    0.00050205    0.00000000
     atom   28 type  2   force =     0.00000000   -0.00088059    0.00032187
     atom   29 type  1   force =     0.00000000   -0.00078969   -0.00218532
     atom   30 type  1   force =    -0.00000227    0.00071280    0.00219073
     atom   31 type  1   force =    -0.00000227    0.00071280   -0.00219073
     atom   32 type  1   force =     0.00000000   -0.00078969    0.00218532
     atom   33 type  2   force =    -0.00000018    0.00126621    0.00038155
     atom   34 type  2   force =     0.00000000   -0.00126561   -0.00038206
     atom   35 type  2   force =     0.00000000   -0.00126561    0.00038206
     atom   36 type  2   force =    -0.00000018    0.00126621   -0.00038155
     atom   37 type  2   force =     0.00000000   -0.00088537   -0.00032162
     atom   38 type  2   force =     0.00000009    0.00088192    0.00032198
     atom   39 type  2   force =     0.00000009    0.00088192   -0.00032198
     atom   40 type  2   force =     0.00000005   -0.00050300    0.00000000
     atom   41 type  2   force =     0.00000000    0.00050184    0.00000000
     atom   42 type  2   force =     0.00000000   -0.00088537    0.00032162
     atom   43 type  1   force =     0.00000000   -0.00071721   -0.00218787
     atom   44 type  1   force =     0.00000065    0.00079259    0.00219016
     atom   45 type  1   force =     0.00000065    0.00079259   -0.00219016
     atom   46 type  1   force =     0.00000000   -0.00071721    0.00218787
     atom   47 type  2   force =    -0.00000022    0.00126491    0.00038253
     atom   48 type  2   force =     0.00000000   -0.00126614   -0.00038182
     atom   49 type  2   force =     0.00000000   -0.00126614    0.00038182
     atom   50 type  2   force =    -0.00000022    0.00126491   -0.00038253
     atom   51 type  2   force =     0.00000000   -0.00088345   -0.00032180
     atom   52 type  2   force =     0.00000001    0.00088731    0.00032195
     atom   53 type  2   force =     0.00000001    0.00088731   -0.00032195
     atom   54 type  2   force =     0.00000001   -0.00050302    0.00000000
     atom   55 type  2   force =     0.00000000    0.00050186    0.00000000
     atom   56 type  2   force =     0.00000000   -0.00088345    0.00032180

     Total force =     0.011398     Total SCF correction =     0.000101

     BFGS Geometry Optimization

     number of scf cycles    =   1
     number of bfgs steps    =   0

     energy   new            =   -5095.2005051241 Ry

     new trust radius        =       0.0023291608 bohr
     new conv_thr            =       0.0000000010 Ry


ATOMIC_POSITIONS (angstrom)
V        0.000000000   1.675698996   7.529037413
V        1.772325188   2.703715139   9.899678407
V        1.772325188   2.703715139   1.719464355
V        0.000000000   1.675698996   4.090105336
O        1.772324078   2.159967733   7.915037865
O        0.000000000   2.219488649   9.513675745
O        0.000000000   2.219488649   2.105467017
O        1.772324078   2.159967733   3.704104885
O        0.000000000   0.083159434   4.111520523
O        1.772323935   4.296293675   1.698051035
O        1.772323935   4.296293675   9.921091727
O        1.772323960   2.234968545   0.000000000
O        0.000000000   2.144486711   5.809571380
O        0.000000000   0.083159434   7.507622250
V        0.000000000   6.055196747   7.529036823
V        1.772323643   7.083213040   9.899678105
V        1.772323643   7.083213040   1.719464657
V        0.000000000   6.055196747   4.090105926
O        1.772324101   6.539422725   7.915038384
O        0.000000000   6.598943515   9.513676265
O        0.000000000   6.598943515   2.105466496
O        1.772324101   6.539422725   3.704104366
O        0.000000000   4.462618400   4.111520414
O        1.772323980   8.675752205   1.698051024
O        1.772323980   8.675752205   9.921091738
O        1.772323981   6.614424217   0.000000000
O        0.000000000   6.523942324   5.809571380
O        0.000000000   4.462618400   7.507622359
V        3.544647955   1.675699869   7.529038586
V        5.316970736   2.703715139   9.899678407
V        5.316970736   2.703715139   1.719464355
V        3.544647955   1.675699869   4.090104163
O        5.316971845   2.159967733   7.915037865
O        3.544647955   2.219488280   9.513675998
O        3.544647955   2.219488280   2.105466764
O        5.316971845   2.159967733   3.704104885
O        3.544647955   0.083160193   4.111520546
O        5.316971988   4.296293675   1.698051035
O        5.316971988   4.296293675   9.921091727
O        5.316971963   2.234968545   0.000000000
O        3.544647955   2.144486532   5.809571380
O        3.544647955   0.083160193   7.507622226
V        3.544647955   6.055193900   7.529037237
V        5.316972280   7.083213040   9.899678105
V        5.316972280   7.083213040   1.719464657
V        3.544647955   6.055193900   4.090105512
O        5.316971823   6.539422725   7.915038384
O        3.544647955   6.598943678   9.513676125
O        3.544647955   6.598943678   2.105466637
O        5.316971823   6.539422725   3.704104366
O        3.544647955   4.462616887   4.111520447
O        5.316971943   8.675752205   1.698051024
O        5.316971943   8.675752205   9.921091738
O        5.316971942   6.614424217   0.000000000
O        3.544647955   6.523942224   5.809571380
O        3.544647955   4.462616887   7.507622325



     Writing output data file v16o40.save/
     NEW-OLD atomic charge density approx. for the potential

     Check: negative core charge=   -0.000001

     negative rho (up, down):  1.486E-03 0.000E+00

     total cpu time spent up to now is     5494.6 secs

     Self-consistent Calculation

     iteration #  1     ecut=    65.00 Ry     beta= 0.70
     Davidson diagonalization with overlap
     ethr =  1.00E-06,  avg # of iterations =  4.1

     Threshold (ethr) on eigenvalues was too large:
     Diagonalizing with lowered threshold

     Davidson diagonalization with overlap
     ethr =  3.94E-09,  avg # of iterations =  5.2

     negative rho (up, down):  1.403E-03 0.000E+00

     total cpu time spent up to now is     6089.5 secs

     total energy              =   -5095.20058502 Ry
     Harris-Foulkes estimate   =   -5095.20252508 Ry
     estimated scf accuracy    <       0.00002406 Ry

     iteration #  2     ecut=    65.00 Ry     beta= 0.70
     Davidson diagonalization with overlap
     ethr =  5.37E-09,  avg # of iterations =  4.1

     negative rho (up, down):  1.391E-03 0.000E+00

     total cpu time spent up to now is     6334.8 secs

     total energy              =   -5095.20057958 Ry
     Harris-Foulkes estimate   =   -5095.20059895 Ry
     estimated scf accuracy    <       0.00004611 Ry

     iteration #  3     ecut=    65.00 Ry     beta= 0.70
     Davidson diagonalization with overlap
     ethr =  5.37E-09,  avg # of iterations =  6.0

     negative rho (up, down):  1.382E-03 0.000E+00

     total cpu time spent up to now is     6548.7 secs

     total energy              =   -5095.20058717 Ry
     Harris-Foulkes estimate   =   -5095.20059941 Ry
     estimated scf accuracy    <       0.00005776 Ry

     iteration #  4     ecut=    65.00 Ry     beta= 0.70
     Davidson diagonalization with overlap
     ethr =  5.37E-09,  avg # of iterations =  3.0

     negative rho (up, down):  1.376E-03 0.000E+00

     total cpu time spent up to now is     6679.7 secs

     total energy              =   -5095.20059195 Ry
     Harris-Foulkes estimate   =   -5095.20059279 Ry
     estimated scf accuracy    <       0.00000484 Ry

     iteration #  5     ecut=    65.00 Ry     beta= 0.70
     Davidson diagonalization with overlap
     ethr =  1.08E-09,  avg # of iterations =  4.4

     negative rho (up, down):  1.373E-03 0.000E+00

     total cpu time spent up to now is     6914.5 secs

     total energy              =   -5095.20059470 Ry
     Harris-Foulkes estimate   =   -5095.20059515 Ry
     estimated scf accuracy    <       0.00000295 Ry

     iteration #  6     ecut=    65.00 Ry     beta= 0.70
     Davidson diagonalization with overlap
     ethr =  6.59E-10,  avg # of iterations =  5.1

     negative rho (up, down):  1.370E-03 0.000E+00

     total cpu time spent up to now is     7054.8 secs

     total energy              =   -5095.20059508 Ry
     Harris-Foulkes estimate   =   -5095.20059536 Ry
     estimated scf accuracy    <       0.00000214 Ry

     iteration #  7     ecut=    65.00 Ry     beta= 0.70
     Davidson diagonalization with overlap
     ethr =  4.77E-10,  avg # of iterations =  2.9

     negative rho (up, down):  1.369E-03 0.000E+00

     total cpu time spent up to now is     7188.5 secs

     total energy              =   -5095.20059526 Ry
     Harris-Foulkes estimate   =   -5095.20059534 Ry
     estimated scf accuracy    <       0.00000039 Ry

     iteration #  8     ecut=    65.00 Ry     beta= 0.70
     Davidson diagonalization with overlap
     ethr =  8.77E-11,  avg # of iterations =  4.9

     negative rho (up, down):  1.369E-03 0.000E+00

     total cpu time spent up to now is     7383.0 secs

     total energy              =   -5095.20059535 Ry
     Harris-Foulkes estimate   =   -5095.20059539 Ry
     estimated scf accuracy    <       0.00000021 Ry

     iteration #  9     ecut=    65.00 Ry     beta= 0.70
     Davidson diagonalization with overlap
     ethr =  4.78E-11,  avg # of iterations =  1.4

     negative rho (up, down):  1.368E-03 0.000E+00

     total cpu time spent up to now is     7511.9 secs

     total energy              =   -5095.20059537 Ry
     Harris-Foulkes estimate   =   -5095.20059537 Ry
     estimated scf accuracy    <       0.00000003 Ry

     iteration # 10     ecut=    65.00 Ry     beta= 0.70
     Davidson diagonalization with overlap
     ethr =  7.63E-12,  avg # of iterations =  4.9

     negative rho (up, down):  1.368E-03 0.000E+00

     total cpu time spent up to now is     7688.3 secs

     total energy              =   -5095.20059538 Ry
     Harris-Foulkes estimate   =   -5095.20059538 Ry
     estimated scf accuracy    <       0.00000004 Ry

     iteration # 11     ecut=    65.00 Ry     beta= 0.70
     Davidson diagonalization with overlap
     ethr =  7.63E-12,  avg # of iterations =  3.4

     negative rho (up, down):  1.368E-03 0.000E+00

     total cpu time spent up to now is     7789.2 secs

     total energy              =   -5095.20059538 Ry
     Harris-Foulkes estimate   =   -5095.20059538 Ry
     estimated scf accuracy    <       0.00000002 Ry

     iteration # 12     ecut=    65.00 Ry     beta= 0.70
     Davidson diagonalization with overlap
     ethr =  3.66E-12,  avg # of iterations =  4.0

     negative rho (up, down):  1.368E-03 0.000E+00

     total cpu time spent up to now is     7908.2 secs

     total energy              =   -5095.20059538 Ry
     Harris-Foulkes estimate   =   -5095.20059538 Ry
     estimated scf accuracy    <          5.0E-09 Ry

     iteration # 13     ecut=    65.00 Ry     beta= 0.70
     Davidson diagonalization with overlap
     ethr =  1.11E-12,  avg # of iterations =  3.6

     negative rho (up, down):  1.368E-03 0.000E+00

     total cpu time spent up to now is     8011.5 secs

     total energy              =   -5095.20059538 Ry
     Harris-Foulkes estimate   =   -5095.20059538 Ry
     estimated scf accuracy    <          1.1E-09 Ry

     iteration # 14     ecut=    65.00 Ry     beta= 0.70
     Davidson diagonalization with overlap
     ethr =  2.57E-13,  avg # of iterations =  4.5

     negative rho (up, down):  1.368E-03 0.000E+00

     total cpu time spent up to now is     8161.7 secs

     End of self-consistent calculation

          k = 0.0000 0.0000 0.0000 ( 43117 PWs)   bands (ev):

   -59.8174 -59.8173 -59.8155 -59.8154 -59.8098 -59.8098 -59.8097 -59.8097
   -59.8079 -59.8079 -59.8078 -59.8078 -59.8068 -59.8068 -59.8049 -59.8049
   -33.8207 -33.8183 -33.8176 -33.8153 -33.8151 -33.8120 -33.8120 -33.8095
   -33.8094 -33.8092 -33.8092 -33.8078 -33.8078 -33.8049 -33.8049 -33.8038
   -33.7448 -33.7441 -33.7350 -33.7350 -33.7346 -33.7346 -33.7069 -33.7069
   -33.7064 -33.7064 -33.6930 -33.6922 -33.6659 -33.6658 -33.6488 -33.6488
   -33.6487 -33.6487 -33.6337 -33.6334 -33.6313 -33.6310 -33.6228 -33.6228
   -33.6228 -33.6228 -33.6166 -33.6165 -33.6004 -33.6001 -33.5980 -33.5977
   -13.4347 -13.3163 -13.3065 -13.2048 -12.4557 -12.4557 -12.3774 -12.3774
   -12.3733 -12.2715 -12.2715 -12.2683 -12.2379 -12.2379 -12.2254 -12.1780
   -12.1405 -12.1357 -12.1115 -12.0848 -12.0397 -12.0397 -12.0176 -12.0176
   -11.7220 -11.7152 -11.7065 -11.6883 -11.6421 -11.6421 -11.6064 -11.6064
   -11.5617 -11.5617 -11.5590 -11.5305 -11.5277 -11.5277 -11.5075 -11.4669
    -0.4526  -0.4526  -0.4214  -0.4214  -0.2723  -0.2581  -0.2498  -0.2498
    -0.2355  -0.2355  -0.2230  -0.2194  -0.1990  -0.1979  -0.1848  -0.1244
    -0.0625  -0.0548   0.0816   0.0817   0.0965   0.1714   0.1714   0.3890
     0.4147   0.5100   0.5100   0.5407   0.5712   0.5712   0.5832   0.6596
     0.6739   0.6740   0.8279   0.8279   1.0155   1.0524   1.0524   1.2636
     1.2889   1.2889   1.3022   1.3321   1.3321   1.4032   1.4482   1.4482
     1.4631   1.4909   1.5643   1.6762   1.6762   1.7135   1.7135   1.7701
     1.7701   1.8084   1.8411   1.8526   1.8526   1.8891   1.9532   2.0522
     2.1328   2.1819   2.1902   2.2113   2.2584   2.2605   2.2605   2.3121
     2.3248   2.3623   2.3846   2.3846   2.4445   2.4445   2.4608   2.4841
     2.5200   2.6231   2.6951   2.7299   2.7470   2.7470   2.8119   2.9390
     2.9390   2.9757   2.9811   3.0698   3.0698   3.1148   3.1808   3.1954
     3.1954   3.2078   3.2081   3.2294   3.2441   3.3629   3.4091   3.4539
     3.4539   3.4563   3.4952   3.5184   3.5748   3.5748   3.5774   3.8209
     3.8963   3.9340   3.9340   4.0057   4.0057   4.0356   4.1621   4.1621
     5.9800   6.1306   6.1475   6.2859   6.4750   6.4750   6.5165   6.5165
     7.1776   7.1776   7.2663   7.2664   7.3917   7.4293   7.4921   7.4963
     7.5407   7.5762   7.6511   7.6555   7.6556   7.7042   7.7042   7.8097
     7.8600   7.8600   7.8708   7.8709   7.8721   7.8738   8.0740   8.1744
     8.2373   8.2373   8.2571   8.2571   8.2829   8.2829   8.2886   8.3267
     8.4657   8.4657   8.5963   8.5963   8.7194

          k = 0.0000 0.0000-0.3051 ( 43116 PWs)   bands (ev):

   -59.8165 -59.8165 -59.8164 -59.8164 -59.8098 -59.8098 -59.8097 -59.8097
   -59.8079 -59.8079 -59.8078 -59.8078 -59.8058 -59.8058 -59.8058 -59.8058
   -33.8196 -33.8196 -33.8164 -33.8164 -33.8126 -33.8126 -33.8120 -33.8120
   -33.8092 -33.8091 -33.8078 -33.8078 -33.8070 -33.8070 -33.8049 -33.8049
   -33.7342 -33.7341 -33.7336 -33.7336 -33.7257 -33.7257 -33.7253 -33.7253
   -33.7087 -33.7087 -33.7081 -33.7081 -33.6470 -33.6470 -33.6469 -33.6469
   -33.6339 -33.6339 -33.6339 -33.6339 -33.6325 -33.6325 -33.6322 -33.6322
   -33.6238 -33.6238 -33.6238 -33.6238 -33.5990 -33.5990 -33.5990 -33.5990
   -13.3752 -13.3752 -13.2640 -13.2640 -12.4535 -12.4535 -12.3746 -12.3746
   -12.2907 -12.2907 -12.2761 -12.2761 -12.2427 -12.2427 -12.2115 -12.2115
   -12.1301 -12.1301 -12.1188 -12.1187 -12.0370 -12.0370 -12.0156 -12.0156
   -11.7137 -11.7137 -11.7066 -11.7066 -11.6424 -11.6424 -11.6064 -11.6064
   -11.5617 -11.5617 -11.5417 -11.5417 -11.5277 -11.5277 -11.4856 -11.4856
    -0.4385  -0.4385  -0.4342  -0.4342  -0.2652  -0.2652  -0.2617  -0.2617
    -0.2378  -0.2378  -0.2323  -0.2323  -0.1919  -0.1919  -0.1631  -0.1631
    -0.0696  -0.0696   0.0421   0.0421   0.1620   0.1620   0.3471   0.3471
     0.4243   0.4243   0.5333   0.5333   0.5514   0.5514   0.5947   0.5947
     0.6064   0.6064   0.9769   0.9769   1.1151   1.1151   1.2557   1.2557
     1.3402   1.3402   1.3754   1.3754   1.3963   1.3963   1.4175   1.4175
     1.4316   1.4316   1.4628   1.4628   1.4685   1.4685   1.5352   1.5352
     1.8240   1.8240   1.9579   1.9579   1.9584   1.9584   2.0914   2.0914
     2.2730   2.2730   2.2816   2.2817   2.2900   2.2900   2.3034   2.3034
     2.3739   2.3739   2.4263   2.4263   2.4924   2.4924   2.4933   2.4933
     2.5406   2.5406   2.6071   2.6071   2.6123   2.6123   2.7292   2.7292
     2.9001   2.9001   2.9205   2.9205   2.9272   2.9272   3.1947   3.1947
     3.2214   3.2214   3.4164   3.4164   3.4174   3.4174   3.4197   3.4197
     3.4823   3.4823   3.5316   3.5316   3.6414   3.6415   3.6735   3.6735
     3.7592   3.7592   3.9654   3.9654   4.1306   4.1306   4.1379   4.1379
     6.0603   6.0603   6.2063   6.2064   6.5470   6.5470   6.5736   6.5737
     7.1500   7.1500   7.2208   7.2208   7.4460   7.4461   7.5205   7.5205
     7.5974   7.5974   7.6171   7.6171   7.7138   7.7138   7.7756   7.7756
     7.7825   7.7825   7.8255   7.8255   7.8541   7.8541   7.9259   7.9259
     8.1661   8.1661   8.2933   8.2933   8.3285   8.3285   8.4024   8.4024
     8.6105   8.6105   8.7292   8.7292   8.7683

          k = 0.0000-0.4047 0.0000 ( 43054 PWs)   bands (ev):

   -59.8173 -59.8173 -59.8154 -59.8154 -59.8098 -59.8098 -59.8097 -59.8097
   -59.8079 -59.8079 -59.8079 -59.8078 -59.8068 -59.8068 -59.8049 -59.8049
   -33.8191 -33.8191 -33.8168 -33.8168 -33.8125 -33.8125 -33.8100 -33.8100
   -33.8098 -33.8098 -33.8070 -33.8070 -33.8069 -33.8069 -33.8067 -33.8067
   -33.7444 -33.7443 -33.7348 -33.7348 -33.7348 -33.7348 -33.7066 -33.7066
   -33.7066 -33.7066 -33.6925 -33.6925 -33.6658 -33.6658 -33.6487 -33.6487
   -33.6487 -33.6487 -33.6335 -33.6335 -33.6312 -33.6312 -33.6228 -33.6228
   -33.6228 -33.6228 -33.6166 -33.6166 -33.6003 -33.6003 -33.5979 -33.5979
   -13.3762 -13.3762 -13.2559 -13.2559 -12.4154 -12.4154 -12.4154 -12.4154
   -12.3203 -12.3203 -12.2537 -12.2537 -12.2537 -12.2537 -12.2004 -12.2004
   -12.1381 -12.1381 -12.0991 -12.0991 -12.0292 -12.0292 -12.0292 -12.0292
   -11.7141 -11.7139 -11.7024 -11.7021 -11.5868 -11.5868 -11.5866 -11.5866
   -11.5857 -11.5857 -11.5855 -11.5855 -11.5195 -11.5193 -11.5151 -11.5149
    -0.4336  -0.4336  -0.4336  -0.4336  -0.2366  -0.2366  -0.2366  -0.2366
    -0.2360  -0.2360  -0.2261  -0.2261  -0.2219  -0.2219  -0.0884  -0.0884
     0.0067   0.0068   0.1208   0.1208   0.1208   0.1208   0.4394   0.4395
     0.5046   0.5046   0.6817   0.6817   0.6818   0.6818   0.7868   0.7868
     0.8620   0.8621   0.9719   0.9720   0.9729   0.9729   0.9731   0.9731
     0.9749   0.9749   0.9750   0.9750   1.2105   1.2105   1.2106   1.2106
     1.5362   1.5364   1.5679   1.5681   1.6191   1.6193   1.7178   1.7178
     1.7180   1.7180   1.9199   1.9199   1.9201   1.9201   1.9405   1.9405
     1.9406   1.9406   1.9982   1.9984   2.0862   2.0864   2.2288   2.2289
     2.3514   2.3514   2.4390   2.4390   2.6049   2.6049   2.6645   2.6646
     2.7761   2.7761   2.8505   2.8505   2.8507   2.8507   2.8936   2.8936
     2.8936   2.8936   2.9163   2.9165   3.1605   3.1605   3.2136   3.2137
     3.2166   3.2167   3.3176   3.3176   3.3361   3.3361   3.5633   3.5634
     3.5771   3.5771   3.5773   3.5773   3.7241   3.7242   3.7447   3.7447
     3.7448   3.7448   3.7943   3.7945   3.8650   3.8650   3.8651   3.8651
     6.0515   6.0515   6.2201   6.2201   6.4871   6.4871   6.4871   6.4871
     7.2197   7.2197   7.2197   7.2197   7.4348   7.4348   7.5175   7.5175
     7.5263   7.5264   7.7102   7.7102   7.7807   7.7807   7.7807   7.7807
     7.8204   7.8204   7.8204   7.8204   7.8968   7.8968   8.2252   8.2252
     8.2434   8.2434   8.2783   8.2783   8.2783   8.2783   8.3742   8.3742
     8.3742   8.3742   8.7400   8.7400   8.7597

          k = 0.0000-0.4047-0.3051 ( 43112 PWs)   bands (ev):

   -59.8165 -59.8165 -59.8165 -59.8165 -59.8098 -59.8098 -59.8097 -59.8097
   -59.8079 -59.8079 -59.8078 -59.8078 -59.8058 -59.8058 -59.8058 -59.8058
   -33.8180 -33.8180 -33.8180 -33.8180 -33.8100 -33.8100 -33.8098 -33.8098
   -33.8098 -33.8098 -33.8098 -33.8098 -33.8070 -33.8070 -33.8069 -33.8069
   -33.7339 -33.7339 -33.7339 -33.7339 -33.7255 -33.7255 -33.7255 -33.7255
   -33.7084 -33.7084 -33.7084 -33.7084 -33.6470 -33.6470 -33.6470 -33.6469
   -33.6339 -33.6339 -33.6339 -33.6339 -33.6324 -33.6324 -33.6324 -33.6324
   -33.6238 -33.6238 -33.6238 -33.6238 -33.5990 -33.5990 -33.5990 -33.5990
   -13.3201 -13.3201 -13.3200 -13.3200 -12.4129 -12.4129 -12.4129 -12.4129
   -12.2585 -12.2585 -12.2585 -12.2585 -12.2502 -12.2502 -12.2502 -12.2502
   -12.1249 -12.1248 -12.1248 -12.1248 -12.0268 -12.0268 -12.0268 -12.0268
   -11.7095 -11.7095 -11.7092 -11.7092 -11.5870 -11.5870 -11.5867 -11.5867
   -11.5857 -11.5857 -11.5854 -11.5854 -11.5161 -11.5161 -11.5158 -11.5158
    -0.4322  -0.4322  -0.4322  -0.4322  -0.2444  -0.2444  -0.2443  -0.2443
    -0.2290  -0.2290  -0.2290  -0.2290  -0.1907  -0.1907  -0.1906  -0.1906
     0.1033   0.1034   0.1034   0.1034   0.2081   0.2081   0.2082   0.2082
     0.6726   0.6726   0.6727   0.6727   0.7779   0.7779   0.7780   0.7780
     0.8118   0.8118   0.8120   0.8120   0.9548   0.9548   0.9550   0.9550
     1.0668   1.0668   1.0669   1.0669   1.2440   1.2440   1.2440   1.2440
     1.5922   1.5922   1.5924   1.5924   1.6325   1.6325   1.6328   1.6328
     1.7171   1.7171   1.7172   1.7172   1.8150   1.8150   1.8153   1.8153
     2.1095   2.1095   2.1096   2.1096   2.2856   2.2857   2.2857   2.2857
     2.5068   2.5068   2.5069   2.5069   2.5223   2.5223   2.5226   2.5226
     2.6013   2.6013   2.6014   2.6014   2.7261   2.7261   2.7261   2.7261
     3.2149   3.2149   3.2149   3.2149   3.2226   3.2226   3.2226   3.2226
     3.2432   3.2432   3.2432   3.2432   3.3728   3.3729   3.3730   3.3730
     3.5018   3.5018   3.5019   3.5019   3.7558   3.7558   3.7559   3.7559
     3.8210   3.8211   3.8211   3.8211   3.8604   3.8604   3.8604   3.8604
     6.1326   6.1327   6.1327   6.1327   6.5581   6.5581   6.5581   6.5581
     7.1774   7.1774   7.1774   7.1774   7.4840   7.4840   7.4840   7.4840
     7.7156   7.7156   7.7156   7.7156   7.7517   7.7517   7.7517   7.7517
     7.8239   7.8239   7.8239   7.8239   7.8364   7.8364   7.8365   7.8365
     8.2270   8.2270   8.2270   8.2270   8.4053   8.4053   8.4054   8.4054
     8.7470   8.7470   8.7471   8.7471   8.8091

          k =-0.5000 0.0000 0.0000 ( 43106 PWs)   bands (ev):

   -59.8147 -59.8147 -59.8146 -59.8146 -59.8128 -59.8128 -59.8127 -59.8127
   -59.8072 -59.8072 -59.8072 -59.8072 -59.8053 -59.8053 -59.8053 -59.8053
   -33.8175 -33.8175 -33.8152 -33.8152 -33.8140 -33.8140 -33.8128 -33.8128
   -33.8119 -33.8119 -33.8078 -33.8078 -33.8076 -33.8076 -33.8026 -33.8026
   -33.7419 -33.7419 -33.7413 -33.7413 -33.6963 -33.6963 -33.6960 -33.6960
   -33.6960 -33.6960 -33.6954 -33.6954 -33.6728 -33.6728 -33.6724 -33.6724
   -33.6410 -33.6410 -33.6409 -33.6409 -33.6268 -33.6268 -33.6267 -33.6267
   -33.6182 -33.6182 -33.6181 -33.6181 -33.6123 -33.6123 -33.6122 -33.6122
   -13.0828 -13.0828 -12.9722 -12.9722 -12.9432 -12.9432 -12.8539 -12.8539
   -12.2720 -12.2720 -12.1916 -12.1916 -12.1003 -12.1003 -12.0963 -12.0963
   -12.0835 -12.0835 -12.0782 -12.0782 -12.0782 -12.0782 -12.0545 -12.0545
   -11.6777 -11.6777 -11.6660 -11.6660 -11.6653 -11.6653 -11.6330 -11.6330
   -11.6027 -11.6027 -11.5552 -11.5552 -11.5115 -11.5115 -11.4733 -11.4733
    -0.7082  -0.7082  -0.6806  -0.6806  -0.6765  -0.6765  -0.6460  -0.6460
    -0.0564  -0.0564  -0.0558  -0.0558  -0.0208  -0.0208   0.0213   0.0213
     0.0608   0.0608   0.1030   0.1030   0.1977   0.1977   0.4173   0.4173
     0.4882   0.4882   0.5827   0.5827   0.6695   0.6695   0.6846   0.6846
     0.7969   0.7969   0.9144   0.9144   0.9481   0.9481   1.0016   1.0016
     1.0894   1.0894   1.2236   1.2236   1.3969   1.3969   1.4548   1.4548
     1.4958   1.4958   1.6283   1.6283   1.6772   1.6772   1.7234   1.7234
     1.9254   1.9254   2.1262   2.1262   2.1670   2.1670   2.2048   2.2048
     2.2202   2.2202   2.2204   2.2204   2.2221   2.2221   2.2381   2.2381
     2.2618   2.2618   2.2753   2.2753   2.4339   2.4339   2.4495   2.4495
     2.5652   2.5652   2.5735   2.5735   2.6339   2.6339   2.6921   2.6921
     2.8234   2.8234   3.0503   3.0503   3.0578   3.0578   3.1880   3.1880
     3.2066   3.2066   3.3781   3.3781   3.4550   3.4550   3.4687   3.4687
     3.7385   3.7385   3.7656   3.7656   3.7749   3.7749   3.8028   3.8028
     3.9285   3.9285   3.9592   3.9592   3.9918   3.9918   4.0502   4.0502
     6.2665   6.2665   6.3235   6.3235   6.4911   6.4911   6.4914   6.4914
     7.3388   7.3388   7.3525   7.3525   7.3655   7.3655   7.3760   7.3760
     7.4257   7.4257   7.6175   7.6175   7.6943   7.6943   7.7183   7.7183
     7.7509   7.7509   7.8365   7.8365   7.8778   7.8778   7.9696   7.9696
     7.9853   7.9853   8.0441   8.0441   8.0486   8.0486   8.1029   8.1029
     8.1048   8.1048   8.1508   8.1508   8.1732

          k =-0.5000 0.0000-0.3051 ( 43120 PWs)   bands (ev):

   -59.8138 -59.8138 -59.8138 -59.8138 -59.8138 -59.8138 -59.8138 -59.8138
   -59.8062 -59.8062 -59.8061 -59.8061 -59.8061 -59.8061 -59.8061 -59.8061
   -33.8165 -33.8165 -33.8165 -33.8165 -33.8131 -33.8131 -33.8131 -33.8131
   -33.8103 -33.8103 -33.8103 -33.8103 -33.8052 -33.8052 -33.8052 -33.8052
   -33.7267 -33.7267 -33.7267 -33.7267 -33.7262 -33.7262 -33.7262 -33.7262
   -33.6777 -33.6777 -33.6777 -33.6777 -33.6773 -33.6773 -33.6773 -33.6773
   -33.6301 -33.6301 -33.6301 -33.6301 -33.6301 -33.6301 -33.6301 -33.6301
   -33.6179 -33.6179 -33.6179 -33.6179 -33.6178 -33.6178 -33.6178 -33.6178
   -13.0200 -13.0200 -13.0200 -13.0200 -12.9180 -12.9180 -12.9180 -12.9180
   -12.1714 -12.1714 -12.1713 -12.1713 -12.1194 -12.1194 -12.1194 -12.1194
   -12.0964 -12.0964 -12.0964 -12.0964 -12.0798 -12.0798 -12.0798 -12.0798
   -11.6763 -11.6763 -11.6763 -11.6763 -11.6510 -11.6510 -11.6510 -11.6510
   -11.5731 -11.5731 -11.5731 -11.5731 -11.4904 -11.4904 -11.4904 -11.4904
    -0.6963  -0.6963  -0.6963  -0.6963  -0.6703  -0.6703  -0.6703  -0.6703
    -0.0651  -0.0651  -0.0650  -0.0650   0.0155   0.0155   0.0155   0.0155
     0.0842   0.0842   0.0842   0.0842   0.3822   0.3822   0.3822   0.3822
     0.4808   0.4808   0.4808   0.4808   0.6582   0.6582   0.6582   0.6582
     0.7830   0.7830   0.7830   0.7830   0.9529   0.9529   0.9529   0.9529
     1.2608   1.2608   1.2608   1.2608   1.3624   1.3624   1.3624   1.3624
     1.5058   1.5058   1.5058   1.5058   1.9883   1.9883   1.9883   1.9883
     2.0148   2.0148   2.0148   2.0148   2.1778   2.1778   2.1778   2.1778
     2.1787   2.1787   2.1788   2.1788   2.2275   2.2275   2.2275   2.2275
     2.2577   2.2577   2.2577   2.2577   2.3662   2.3662   2.3662   2.3662
     2.5494   2.5494   2.5494   2.5494   2.6962   2.6962   2.6962   2.6962
     2.7722   2.7722   2.7722   2.7722   3.2607   3.2607   3.2607   3.2607
     3.3122   3.3122   3.3122   3.3122   3.4006   3.4006   3.4006   3.4006
     3.7505   3.7505   3.7505   3.7505   3.7518   3.7518   3.7518   3.7518
     3.9905   3.9905   3.9906   3.9906   4.0261   4.0261   4.0261   4.0261
     6.4066   6.4066   6.4067   6.4067   6.4144   6.4144   6.4144   6.4144
     7.3598   7.3598   7.3598   7.3599   7.4110   7.4110   7.4110   7.4110
     7.4731   7.4731   7.4731   7.4731   7.7465   7.7465   7.7465   7.7465
     7.7648   7.7648   7.7648   7.7648   7.9161   7.9161   7.9161   7.9161
     8.0017   8.0017   8.0017   8.0017   8.0528   8.0528   8.0528   8.0528
     8.1060   8.1060   8.1060   8.1060   8.1959

          k =-0.5000-0.4047 0.0000 ( 43128 PWs)   bands (ev):

   -59.8146 -59.8146 -59.8146 -59.8146 -59.8127 -59.8127 -59.8127 -59.8127
   -59.8072 -59.8072 -59.8072 -59.8072 -59.8053 -59.8053 -59.8053 -59.8053
   -33.8157 -33.8157 -33.8157 -33.8157 -33.8135 -33.8135 -33.8135 -33.8135
   -33.8103 -33.8103 -33.8103 -33.8103 -33.8052 -33.8052 -33.8052 -33.8052
   -33.7416 -33.7416 -33.7416 -33.7416 -33.6962 -33.6962 -33.6962 -33.6962
   -33.6957 -33.6957 -33.6957 -33.6957 -33.6726 -33.6726 -33.6726 -33.6726
   -33.6410 -33.6410 -33.6410 -33.6410 -33.6268 -33.6268 -33.6268 -33.6268
   -33.6182 -33.6182 -33.6182 -33.6182 -33.6123 -33.6123 -33.6123 -33.6123
   -13.0278 -13.0278 -13.0278 -13.0278 -12.8984 -12.8984 -12.8984 -12.8984
   -12.2293 -12.2293 -12.2293 -12.2293 -12.0934 -12.0934 -12.0934 -12.0934
   -12.0866 -12.0866 -12.0866 -12.0866 -12.0671 -12.0671 -12.0671 -12.0671
   -11.6658 -11.6658 -11.6656 -11.6656 -11.6563 -11.6563 -11.6561 -11.6561
   -11.5397 -11.5397 -11.5395 -11.5395 -11.5349 -11.5349 -11.5347 -11.5347
    -0.6956  -0.6956  -0.6956  -0.6956  -0.6617  -0.6617  -0.6617  -0.6617
    -0.0507  -0.0507  -0.0507  -0.0507   0.0702   0.0702   0.0702   0.0702
     0.1256   0.1256   0.1256   0.1256   0.4960   0.4960   0.4962   0.4962
     0.6583   0.6583   0.6584   0.6584   0.7027   0.7027   0.7027   0.7027
     0.7402   0.7402   0.7403   0.7403   0.9810   0.9811   0.9812   0.9812
     1.0792   1.0792   1.0794   1.0794   1.0873   1.0873   1.0874   1.0874
     1.6401   1.6401   1.6403   1.6403   1.6690   1.6690   1.6690   1.6691
     1.8773   1.8773   1.8775   1.8775   1.9301   1.9301   1.9304   1.9304
     2.1952   2.1952   2.1952   2.1952   2.2237   2.2237   2.2238   2.2238
     2.2973   2.2973   2.2974   2.2974   2.5309   2.5310   2.5310   2.5310
     2.5821   2.5821   2.5824   2.5824   2.8542   2.8542   2.8544   2.8544
     3.0217   3.0217   3.0218   3.0218   3.1679   3.1679   3.1680   3.1680
     3.5196   3.5196   3.5197   3.5197   3.5396   3.5396   3.5396   3.5396
     3.6166   3.6166   3.6167   3.6167   3.7526   3.7526   3.7526   3.7526
     3.8287   3.8287   3.8287   3.8287   3.8962   3.8962   3.8963   3.8963
     6.2998   6.2998   6.2998   6.2998   6.4906   6.4906   6.4906   6.4906
     7.3597   7.3597   7.3597   7.3597   7.4000   7.4000   7.4000   7.4000
     7.4808   7.4808   7.4808   7.4808   7.7889   7.7889   7.7889   7.7889
     7.8077   7.8077   7.8077   7.8077   7.8678   7.8678   7.8678   7.8679
     8.0386   8.0387   8.0387   8.0387   8.1114   8.1114   8.1115   8.1115
     8.1170   8.1170   8.1170   8.1170   8.2655

          k =-0.5000-0.4047-0.3051 ( 43072 PWs)   bands (ev):

   -59.8138 -59.8138 -59.8138 -59.8138 -59.8138 -59.8138 -59.8138 -59.8138
   -59.8061 -59.8061 -59.8061 -59.8061 -59.8061 -59.8061 -59.8061 -59.8061
   -33.8148 -33.8148 -33.8148 -33.8148 -33.8148 -33.8148 -33.8148 -33.8148
   -33.8078 -33.8078 -33.8078 -33.8078 -33.8078 -33.8077 -33.8077 -33.8077
   -33.7264 -33.7264 -33.7264 -33.7264 -33.7264 -33.7264 -33.7264 -33.7264
   -33.6775 -33.6775 -33.6775 -33.6775 -33.6775 -33.6775 -33.6775 -33.6775
   -33.6301 -33.6301 -33.6301 -33.6301 -33.6301 -33.6301 -33.6301 -33.6301
   -33.6178 -33.6178 -33.6178 -33.6178 -33.6178 -33.6178 -33.6178 -33.6178
   -12.9691 -12.9691 -12.9691 -12.9691 -12.9691 -12.9691 -12.9691 -12.9691
   -12.1429 -12.1429 -12.1428 -12.1428 -12.1428 -12.1428 -12.1428 -12.1428
   -12.0898 -12.0898 -12.0898 -12.0898 -12.0898 -12.0898 -12.0898 -12.0898
   -11.6621 -11.6621 -11.6621 -11.6621 -11.6619 -11.6619 -11.6619 -11.6619
   -11.5358 -11.5357 -11.5357 -11.5357 -11.5355 -11.5355 -11.5355 -11.5355
    -0.6840  -0.6840  -0.6840  -0.6840  -0.6840  -0.6840  -0.6840  -0.6840
    -0.0112  -0.0112  -0.0112  -0.0112  -0.0112  -0.0112  -0.0112  -0.0112
     0.3333   0.3333   0.3333   0.3333   0.3334   0.3334   0.3334   0.3334
     0.6294   0.6294   0.6294   0.6294   0.6296   0.6296   0.6296   0.6296
     0.9205   0.9205   0.9205   0.9205   0.9206   0.9206   0.9206   0.9206
     1.0528   1.0528   1.0528   1.0528   1.0529   1.0529   1.0529   1.0529
     1.6507   1.6507   1.6507   1.6507   1.6509   1.6509   1.6509   1.6509
     2.0477   2.0477   2.0477   2.0477   2.0478   2.0478   2.0478   2.0478
     2.1754   2.1754   2.1754   2.1754   2.1756   2.1756   2.1756   2.1756
     2.3151   2.3151   2.3151   2.3151   2.3152   2.3152   2.3152   2.3152
     2.7068   2.7068   2.7068   2.7068   2.7070   2.7071   2.7071   2.7071
     3.1039   3.1039   3.1039   3.1039   3.1040   3.1040   3.1040   3.1040
     3.5223   3.5223   3.5223   3.5223   3.5223   3.5223   3.5223   3.5223
     3.6902   3.6902   3.6902   3.6902   3.6903   3.6903   3.6903   3.6903
     3.8775   3.8775   3.8775   3.8775   3.8775   3.8775   3.8775   3.8775
     6.4129   6.4129   6.4130   6.4130   6.4130   6.4130   6.4130   6.4130
     7.3848   7.3848   7.3848   7.3848   7.3848   7.3848   7.3849   7.3849
     7.6184   7.6184   7.6184   7.6184   7.6184   7.6184   7.6184   7.6184
     7.8589   7.8589   7.8589   7.8589   7.8590   7.8590   7.8590   7.8590
     8.0371   8.0371   8.0371   8.0371   8.0371   8.0372   8.0372   8.0372
     8.1693   8.1693   8.1693   8.1693   8.1693

     the Fermi energy is     5.1444 ev

!    total energy              =   -5095.20059538 Ry
     Harris-Foulkes estimate   =   -5095.20059538 Ry
     estimated scf accuracy    <          8.4E-10 Ry

     total all-electron energy =    -36402.616264 Ry

     The total energy is the sum of the following terms:

     one-electron contribution =   -2302.02561360 Ry
     hartree contribution      =    1326.23254254 Ry
     xc contribution           =    -619.57628836 Ry
     ewald contribution        =   -1997.71907518 Ry
     Dispersion Correction     =      -0.52865583 Ry
     one-center paw contrib.   =   -1501.55842440 Ry
     smearing contrib. (-TS)   =      -0.02508055 Ry

     convergence has been achieved in  14 iterations

     negative rho (up, down):  1.368E-03 0.000E+00

     Forces acting on atoms (cartesian axes, Ry/au):

     atom    1 type  1   force =     0.00000000   -0.00049804   -0.00033164
     atom    2 type  1   force =    -0.00000217    0.00052004    0.00031619
     atom    3 type  1   force =    -0.00000217    0.00052004   -0.00031619
     atom    4 type  1   force =     0.00000000   -0.00049804    0.00033164
[...]
     0.7977   0.7977   0.9159   0.9159   0.9506   0.9506   1.0042   1.0042
     1.0887   1.0887   1.2303   1.2303   1.3998   1.3998   1.4625   1.4625
     1.4994   1.4994   1.6264   1.6264   1.6808   1.6808   1.7262   1.7262
     1.9266   1.9266   2.1277   2.1277   2.1710   2.1710   2.2150   2.2150
     2.2186   2.2186   2.2209   2.2209   2.2358   2.2358   2.2414   2.2414
     2.2692   2.2692   2.2762   2.2762   2.4340   2.4340   2.4501   2.4501
     2.5715   2.5715   2.5807   2.5807   2.6360   2.6360   2.6991   2.6991
     2.8185   2.8185   3.0534   3.0534   3.0562   3.0562   3.1854   3.1854
     3.2029   3.2029   3.3756   3.3756   3.4567   3.4567   3.4640   3.4640
     3.7376   3.7376   3.7679   3.7679   3.7785   3.7785   3.8012   3.8012
     3.9256   3.9256   3.9628   3.9628   3.9905   3.9905   4.0510   4.0510
     6.2645   6.2645   6.3221   6.3221   6.4903   6.4903   6.4906   6.4907
     7.3392   7.3392   7.3510   7.3510   7.3650   7.3650   7.3758   7.3758
     7.4242   7.4242   7.6157   7.6157   7.6953   7.6953   7.7203   7.7203
     7.7483   7.7483   7.8346   7.8346   7.8764   7.8764   7.9704   7.9704
     7.9844   7.9844   8.0442   8.0442   8.0483   8.0483   8.0985   8.0985
     8.1027   8.1027   8.1521   8.1521   8.1733

          k =-0.5000 0.0000-0.3051 ( 43120 PWs)   bands (ev):

   -59.8141 -59.8141 -59.8141 -59.8141 -59.8140 -59.8140 -59.8140 -59.8140
   -59.8065 -59.8064 -59.8064 -59.8064 -59.8064 -59.8064 -59.8064 -59.8064
   -33.8163 -33.8163 -33.8163 -33.8163 -33.8128 -33.8128 -33.8128 -33.8128
   -33.8101 -33.8101 -33.8101 -33.8101 -33.8050 -33.8050 -33.8050 -33.8050
   -33.7265 -33.7265 -33.7265 -33.7265 -33.7260 -33.7260 -33.7260 -33.7260
   -33.6772 -33.6772 -33.6772 -33.6772 -33.6768 -33.6768 -33.6768 -33.6768
   -33.6298 -33.6298 -33.6298 -33.6298 -33.6297 -33.6297 -33.6297 -33.6297
   -33.6176 -33.6176 -33.6176 -33.6176 -33.6176 -33.6176 -33.6176 -33.6176
   -13.0167 -13.0167 -13.0167 -13.0167 -12.9140 -12.9140 -12.9140 -12.9140
   -12.1701 -12.1701 -12.1701 -12.1701 -12.1177 -12.1177 -12.1177 -12.1177
   -12.0930 -12.0930 -12.0930 -12.0930 -12.0761 -12.0761 -12.0761 -12.0761
   -11.6759 -11.6759 -11.6759 -11.6759 -11.6513 -11.6513 -11.6513 -11.6513
   -11.5724 -11.5724 -11.5724 -11.5724 -11.4904 -11.4904 -11.4904 -11.4904
    -0.6873  -0.6873  -0.6873  -0.6873  -0.6607  -0.6607  -0.6607  -0.6607
    -0.0615  -0.0615  -0.0615  -0.0615   0.0205   0.0205   0.0205   0.0205
     0.0871   0.0871   0.0871   0.0871   0.3810   0.3810   0.3810   0.3810
     0.4824   0.4824   0.4824   0.4824   0.6592   0.6592   0.6592   0.6592
     0.7832   0.7832   0.7832   0.7832   0.9549   0.9549   0.9549   0.9549
     1.2617   1.2617   1.2617   1.2617   1.3696   1.3696   1.3696   1.3696
     1.5097   1.5097   1.5097   1.5097   1.9876   1.9876   1.9876   1.9876
     2.0181   2.0181   2.0181   2.0181   2.1800   2.1800   2.1800   2.1800
     2.1834   2.1834   2.1834   2.1834   2.2306   2.2306   2.2306   2.2306
     2.2699   2.2699   2.2699   2.2699   2.3637   2.3637   2.3637   2.3637
     2.5509   2.5509   2.5509   2.5509   2.7007   2.7007   2.7007   2.7007
     2.7767   2.7767   2.7767   2.7767   3.2577   3.2577   3.2577   3.2577
     3.3082   3.3082   3.3082   3.3082   3.4011   3.4011   3.4011   3.4011
     3.7511   3.7511   3.7511   3.7511   3.7518   3.7518   3.7518   3.7518
     3.9893   3.9893   3.9893   3.9893   4.0278   4.0278   4.0278   4.0278
     6.4053   6.4053   6.4053   6.4053   6.4133   6.4133   6.4133   6.4133
     7.3599   7.3599   7.3599   7.3599   7.4103   7.4103   7.4103   7.4103
     7.4720   7.4720   7.4720   7.4720   7.7451   7.7451   7.7451   7.7451
     7.7658   7.7658   7.7658   7.7658   7.9134   7.9134   7.9134   7.9134
     7.9980   7.9980   7.9980   7.9980   8.0522   8.0522   8.0522   8.0522
     8.1082   8.1082   8.1082   8.1082   8.1967

          k =-0.5000-0.4047 0.0000 ( 43128 PWs)   bands (ev):

   -59.8149 -59.8149 -59.8149 -59.8149 -59.8130 -59.8130 -59.8130 -59.8130
   -59.8075 -59.8075 -59.8075 -59.8075 -59.8056 -59.8056 -59.8056 -59.8056
   -33.8155 -33.8155 -33.8155 -33.8155 -33.8132 -33.8132 -33.8132 -33.8132
   -33.8101 -33.8101 -33.8101 -33.8101 -33.8050 -33.8050 -33.8050 -33.8050
   -33.7414 -33.7414 -33.7414 -33.7414 -33.6959 -33.6959 -33.6959 -33.6959
   -33.6955 -33.6955 -33.6955 -33.6955 -33.6721 -33.6721 -33.6721 -33.6721
   -33.6407 -33.6407 -33.6407 -33.6407 -33.6263 -33.6263 -33.6263 -33.6263
   -33.6178 -33.6178 -33.6178 -33.6178 -33.6123 -33.6123 -33.6123 -33.6123
   -13.0244 -13.0244 -13.0243 -13.0243 -12.8945 -12.8945 -12.8944 -12.8944
   -12.2283 -12.2283 -12.2282 -12.2282 -12.0898 -12.0898 -12.0898 -12.0898
   -12.0831 -12.0831 -12.0830 -12.0830 -12.0654 -12.0654 -12.0653 -12.0653
   -11.6658 -11.6658 -11.6653 -11.6653 -11.6563 -11.6563 -11.6558 -11.6558
   -11.5397 -11.5396 -11.5392 -11.5392 -11.5346 -11.5346 -11.5342 -11.5342
    -0.6861  -0.6861  -0.6861  -0.6861  -0.6527  -0.6527  -0.6527  -0.6527
    -0.0457  -0.0457  -0.0457  -0.0457   0.0736   0.0736   0.0736   0.0736
     0.1281   0.1281   0.1282   0.1282   0.4989   0.4989   0.4993   0.4993
     0.6621   0.6621   0.6623   0.6623   0.7003   0.7003   0.7003   0.7003
     0.7420   0.7420   0.7422   0.7422   0.9827   0.9827   0.9830   0.9830
     1.0788   1.0788   1.0791   1.0791   1.0895   1.0895   1.0897   1.0897
     1.6396   1.6396   1.6398   1.6398   1.6678   1.6678   1.6678   1.6678
     1.8788   1.8788   1.8789   1.8789   1.9328   1.9328   1.9331   1.9331
     2.2034   2.2034   2.2035   2.2035   2.2321   2.2321   2.2321   2.2321
     2.3057   2.3057   2.3058   2.3058   2.5330   2.5330   2.5330   2.5330
     2.5887   2.5887   2.5889   2.5889   2.8572   2.8572   2.8573   2.8574
     3.0207   3.0207   3.0207   3.0207   3.1641   3.1641   3.1641   3.1641
     3.5222   3.5222   3.5224   3.5224   3.5390   3.5390   3.5393   3.5393
     3.6148   3.6148   3.6149   3.6149   3.7501   3.7501   3.7504   3.7504
     3.8273   3.8273   3.8273   3.8273   3.8989   3.8989   3.8990   3.8990
     6.2982   6.2982   6.2982   6.2982   6.4899   6.4899   6.4899   6.4899
     7.3598   7.3598   7.3599   7.3599   7.3990   7.3990   7.3990   7.3990
     7.4791   7.4791   7.4793   7.4793   7.7867   7.7867   7.7868   7.7868
     7.8074   7.8074   7.8075   7.8075   7.8686   7.8686   7.8689   7.8689
     8.0351   8.0351   8.0351   8.0351   8.1091   8.1091   8.1092   8.1092
     8.1191   8.1191   8.1193   8.1193   8.2649

          k =-0.5000-0.4047-0.3051 ( 43072 PWs)   bands (ev):

   -59.8141 -59.8141 -59.8141 -59.8141 -59.8140 -59.8140 -59.8140 -59.8140
   -59.8064 -59.8064 -59.8064 -59.8064 -59.8064 -59.8064 -59.8064 -59.8064
   -33.8146 -33.8146 -33.8146 -33.8146 -33.8145 -33.8145 -33.8145 -33.8145
   -33.8076 -33.8076 -33.8076 -33.8076 -33.8075 -33.8075 -33.8075 -33.8075
   -33.7263 -33.7263 -33.7263 -33.7263 -33.7262 -33.7262 -33.7262 -33.7262
   -33.6770 -33.6770 -33.6770 -33.6770 -33.6770 -33.6770 -33.6770 -33.6770
   -33.6298 -33.6298 -33.6298 -33.6298 -33.6297 -33.6297 -33.6297 -33.6297
   -33.6176 -33.6176 -33.6176 -33.6176 -33.6176 -33.6176 -33.6176 -33.6176
   -12.9655 -12.9655 -12.9655 -12.9655 -12.9654 -12.9654 -12.9654 -12.9654
   -12.1414 -12.1414 -12.1414 -12.1414 -12.1414 -12.1414 -12.1414 -12.1414
   -12.0863 -12.0863 -12.0863 -12.0863 -12.0863 -12.0863 -12.0863 -12.0863
   -11.6621 -11.6621 -11.6621 -11.6621 -11.6616 -11.6616 -11.6616 -11.6616
   -11.5356 -11.5356 -11.5356 -11.5356 -11.5351 -11.5351 -11.5351 -11.5351
    -0.6748  -0.6748  -0.6748  -0.6748  -0.6747  -0.6747  -0.6747  -0.6747
    -0.0065  -0.0065  -0.0065  -0.0065  -0.0065  -0.0065  -0.0065  -0.0065
     0.3351   0.3351   0.3351   0.3351   0.3353   0.3353   0.3353   0.3353
     0.6305   0.6305   0.6305   0.6305   0.6308   0.6308   0.6308   0.6308
     0.9226   0.9226   0.9226   0.9226   0.9227   0.9227   0.9227   0.9227
     1.0534   1.0534   1.0534   1.0534   1.0539   1.0539   1.0539   1.0539
     1.6502   1.6502   1.6502   1.6502   1.6508   1.6508   1.6509   1.6509
     2.0486   2.0486   2.0486   2.0486   2.0487   2.0487   2.0487   2.0487
     2.1807   2.1807   2.1807   2.1807   2.1808   2.1808   2.1808   2.1808
     2.3246   2.3246   2.3246   2.3246   2.3247   2.3247   2.3247   2.3247
     2.7107   2.7107   2.7107   2.7107   2.7109   2.7109   2.7109   2.7109
     3.1018   3.1018   3.1018   3.1018   3.1018   3.1018   3.1018   3.1018
     3.5229   3.5229   3.5229   3.5229   3.5231   3.5231   3.5231   3.5231
     3.6883   3.6883   3.6883   3.6883   3.6886   3.6886   3.6886   3.6886
     3.8779   3.8779   3.8779   3.8779   3.8780   3.8780   3.8780   3.8780
     6.4119   6.4119   6.4119   6.4119   6.4120   6.4120   6.4120   6.4120
     7.3844   7.3844   7.3844   7.3844   7.3846   7.3846   7.3846   7.3846
     7.6170   7.6170   7.6170   7.6170   7.6172   7.6172   7.6172   7.6172
     7.8580   7.8580   7.8580   7.8580   7.8582   7.8582   7.8582   7.8582
     8.0345   8.0345   8.0345   8.0345   8.0348   8.0348   8.0348   8.0348
     8.1707   8.1707   8.1708   8.1708   8.1708

     the Fermi energy is     5.1431 ev

!    total energy              =   -5095.20066869 Ry
     Harris-Foulkes estimate   =   -5095.20066869 Ry
     estimated scf accuracy    <          9.4E-12 Ry

     total all-electron energy =    -36402.616338 Ry

     The total energy is the sum of the following terms:

     one-electron contribution =   -2300.15157900 Ry
     hartree contribution      =    1325.30675130 Ry
     xc contribution           =    -619.55088137 Ry
     ewald contribution        =   -1998.69271724 Ry
     Dispersion Correction     =      -0.52890265 Ry
     one-center paw contrib.   =   -1501.55811411 Ry
     smearing contrib. (-TS)   =      -0.02522563 Ry

     convergence has been achieved in  14 iterations

     negative rho (up, down):  1.356E-03 0.000E+00

     Forces acting on atoms (cartesian axes, Ry/au):

     atom    1 type  1   force =     0.00000000    0.00002859   -0.00002357
     atom    2 type  1   force =     0.00000010   -0.00003176    0.00002113
     atom    3 type  1   force =     0.00000010   -0.00003176   -0.00002113
     atom    4 type  1   force =     0.00000000    0.00002859    0.00002357
     atom    5 type  2   force =    -0.00000021    0.00003399    0.00003898
     atom    6 type  2   force =     0.00000000   -0.00005030   -0.00004398
     atom    7 type  2   force =     0.00000000   -0.00005030    0.00004398
     atom    8 type  2   force =    -0.00000021    0.00003399   -0.00003898
     atom    9 type  2   force =     0.00000000    0.00001908   -0.00005427
     atom   10 type  2   force =    -0.00000007   -0.00005365    0.00005562
     atom   11 type  2   force =    -0.00000007   -0.00005365   -0.00005562
     atom   12 type  2   force =     0.00000002   -0.00004865    0.00000000
     atom   13 type  2   force =     0.00000000    0.00003368    0.00000000
     atom   14 type  2   force =     0.00000000    0.00001908    0.00005427
     atom   15 type  1   force =     0.00000000    0.00003442   -0.00002129
     atom   16 type  1   force =    -0.00000027   -0.00002844    0.00002249
     atom   17 type  1   force =    -0.00000027   -0.00002844   -0.00002249
     atom   18 type  1   force =     0.00000000    0.00003442    0.00002129
     atom   19 type  2   force =     0.00000028    0.00005023    0.00004364
     atom   20 type  2   force =     0.00000000   -0.00003458   -0.00003877
     atom   21 type  2   force =     0.00000000   -0.00003458    0.00003877
     atom   22 type  2   force =     0.00000028    0.00005023   -0.00004364
     atom   23 type  2   force =     0.00000000    0.00005031   -0.00005574
     atom   24 type  2   force =     0.00000006   -0.00001769    0.00005455
     atom   25 type  2   force =     0.00000006   -0.00001769   -0.00005455
     atom   26 type  2   force =    -0.00000002   -0.00003432    0.00000000
     atom   27 type  2   force =     0.00000000    0.00004854    0.00000000
     atom   28 type  2   force =     0.00000000    0.00005031    0.00005574
     atom   29 type  1   force =     0.00000000    0.00003276   -0.00002360
     atom   30 type  1   force =    -0.00000010   -0.00003176    0.00002113
     atom   31 type  1   force =    -0.00000010   -0.00003176   -0.00002113
     atom   32 type  1   force =     0.00000000    0.00003276    0.00002360
     atom   33 type  2   force =     0.00000021    0.00003399    0.00003898
     atom   34 type  2   force =     0.00000000   -0.00005040   -0.00004382
     atom   35 type  2   force =     0.00000000   -0.00005040    0.00004382
     atom   36 type  2   force =     0.00000021    0.00003399   -0.00003898
     atom   37 type  2   force =     0.00000000    0.00001495   -0.00005432
     atom   38 type  2   force =     0.00000007   -0.00005365    0.00005562
     atom   39 type  2   force =     0.00000007   -0.00005365   -0.00005562
     atom   40 type  2   force =    -0.00000002   -0.00004865    0.00000000
     atom   41 type  2   force =     0.00000000    0.00003342    0.00000000
     atom   42 type  2   force =     0.00000000    0.00001495    0.00005432
     atom   43 type  1   force =     0.00000000    0.00003168   -0.00002154
     atom   44 type  1   force =     0.00000027   -0.00002844    0.00002249
     atom   45 type  1   force =     0.00000027   -0.00002844   -0.00002249
     atom   46 type  1   force =     0.00000000    0.00003168    0.00002154
     atom   47 type  2   force =    -0.00000028    0.00005023    0.00004364
     atom   48 type  2   force =     0.00000000   -0.00003452   -0.00003896
     atom   49 type  2   force =     0.00000000   -0.00003452    0.00003896
     atom   50 type  2   force =    -0.00000028    0.00005023   -0.00004364
     atom   51 type  2   force =     0.00000000    0.00005320   -0.00005625
     atom   52 type  2   force =    -0.00000006   -0.00001769    0.00005455
     atom   53 type  2   force =    -0.00000006   -0.00001769   -0.00005455
     atom   54 type  2   force =     0.00000002   -0.00003432    0.00000000
     atom   55 type  2   force =     0.00000000    0.00004917    0.00000000
     atom   56 type  2   force =     0.00000000    0.00005320    0.00005625

     Total force =     0.000410     Total SCF correction =     0.000013

     bfgs converged in  10 scf cycles and   9 bfgs steps
     (criteria: energy <  1.0E-04 Ry, force <  1.0E-04 Ry/Bohr)

     End of BFGS Geometry Optimization

     Final energy   =   -5095.2006686860 Ry
Begin final coordinates

ATOMIC_POSITIONS (angstrom)
V        0.000000000   1.674557266   7.528894092
V        1.772323930   2.704602741   9.899798092
V        1.772323930   2.704602741   1.719344670
V        0.000000000   1.674557266   4.090248657
O        1.772324055   2.163276128   7.914358886
O        0.000000000   2.216000660   9.514253720
O        0.000000000   2.216000660   2.104889042
O        1.772324055   2.163276128   3.704783864
O        0.000000000   0.081768528   4.111498607
O        1.772324219   4.297404905   1.698083755
O        1.772324219   4.297404905   9.921059007
O        1.772323787   2.234198579   0.000000000
O        0.000000000   2.145086153   5.809571380
O        0.000000000   0.081768528   7.507644165
V        0.000000000   6.054307835   7.528915764
V        1.772324129   7.084353828   9.899820079
V        1.772324129   7.084353828   1.719322683
V        0.000000000   6.054307835   4.090226985
O        1.772323945   6.542910092   7.914460995
O        0.000000000   6.595636889   9.514354938
O        0.000000000   6.595636889   2.104787824
O        1.772323945   6.542910092   3.704681755
O        0.000000000   4.461507432   4.111489384
O        1.772323926   8.677141966   1.698073160
O        1.772323926   8.677141966   9.921069602
O        1.772323968   6.613826955   0.000000000
O        0.000000000   6.524713390   5.809571380
O        0.000000000   4.461507432   7.507653388
V        3.544647955   1.674556148   7.528894018
V        5.316971994   2.704602741   9.899798092
V        5.316971994   2.704602741   1.719344670
V        3.544647955   1.674556148   4.090248731
O        5.316971868   2.163276128   7.914358886
O        3.544647955   2.216000454   9.514253688
O        3.544647955   2.216000454   2.104889074
O        5.316971868   2.163276128   3.704783864
O        3.544647955   0.081769519   4.111499258
O        5.316971704   4.297404905   1.698083755
O        5.316971704   4.297404905   9.921059007
O        5.316972136   2.234198579   0.000000000
O        3.544647955   2.145086820   5.809571380
O        3.544647955   0.081769519   7.507643514
V        3.544647955   6.054308083   7.528916133
V        5.316971795   7.084353828   9.899820079
V        5.316971795   7.084353828   1.719322683
V        3.544647955   6.054308083   4.090226616
O        5.316971978   6.542910092   7.914460995
O        3.544647955   6.595636550   9.514355395
O        3.544647955   6.595636550   2.104787367
O        5.316971978   6.542910092   3.704681755
O        3.544647955   4.461506234   4.111488999
O        5.316971997   8.677141966   1.698073160
O        5.316971997   8.677141966   9.921069602
O        5.316971956   6.613826955   0.000000000
O        3.544647955   6.524711208   5.809571380
O        3.544647955   4.461506234   7.507653773
End final coordinates



     Writing output data file v16o40.save/

     init_run     :     48.65s CPU     49.05s WALL (       1 calls)
     electrons    :  32202.94s CPU  32368.90s WALL (      10 calls)
     update_pot   :     23.40s CPU     23.51s WALL (       9 calls)
     forces       :    665.29s CPU    670.30s WALL (      10 calls)

     Called by init_run:
     wfcinit      :     45.13s CPU     45.27s WALL (       1 calls)
     potinit      :      0.75s CPU      0.77s WALL (       1 calls)
     hinit0       :      1.03s CPU      1.04s WALL (       1 calls)

     Called by electrons:
     c_bands      :  28819.48s CPU  28926.28s WALL (     176 calls)
     sum_band     :   3011.87s CPU   3046.13s WALL (     176 calls)
     v_of_rho     :     21.29s CPU     22.54s WALL (     177 calls)
     newd         :    299.16s CPU    323.38s WALL (     177 calls)
     PAW_pot      :     67.46s CPU     67.53s WALL (     186 calls)
     mix_rho      :      4.89s CPU      5.15s WALL (     176 calls)

     Called by c_bands:
     init_us_2    :     43.40s CPU     43.55s WALL (    2976 calls)
     cegterg      :  28699.55s CPU  28805.97s WALL (    1408 calls)

     Called by sum_band:
     sum_band:bec :      6.97s CPU      7.00s WALL (    1480 calls)
     addusdens    :    294.98s CPU    317.21s WALL (     176 calls)

     Called by *egterg:
     h_psi        :  13183.16s CPU  13229.39s WALL (    6453 calls)
     s_psi        :   5511.39s CPU   5522.76s WALL (    6453 calls)
     g_psi        :      8.38s CPU      8.42s WALL (    5037 calls)
     cdiaghg      :   2245.29s CPU   2275.96s WALL (    6301 calls)

     Called by h_psi:
     h_psi:pot    :  13160.85s CPU  13206.88s WALL (    6453 calls)
     h_psi:calbec :   6094.15s CPU   6117.45s WALL (    6453 calls)
     vloc_psi     :   1052.28s CPU   1062.30s WALL (    6453 calls)
     add_vuspsi   :   6014.27s CPU   6027.07s WALL (    6453 calls)

     General routines
     calbec       :   9232.65s CPU   9268.05s WALL (    8253 calls)
     fft          :     21.39s CPU     23.33s WALL (    2409 calls)
     ffts         :      0.93s CPU      1.01s WALL (     353 calls)
     fftw         :   1164.73s CPU   1175.61s WALL ( 2299120 calls)
     interpolate  :      1.89s CPU      2.11s WALL (     177 calls)

     Parallel routines
     fft_scatt_xy :     91.02s CPU     91.94s WALL ( 2301882 calls)
     fft_scatt_yz :    671.12s CPU    679.74s WALL ( 2301882 calls)

     PWSCF        :      9h11m CPU      9h14m WALL


   This run was terminated on:  12:44:58  20May2024            

=------------------------------------------------------------------------------=
   JOB DONE.
=------------------------------------------------------------------------------=
