
     Program PWSCF v.6.4.1 starts on 27Oct2024 at 14:43:59 

     This program is part of the open-source Quantum ESPRESSO suite
     for quantum simulation of materials; please cite
         "P. Giannozzi et al., J. Phys.:Condens. Matter 21 395502 (2009);
         "P. Giannozzi et al., J. Phys.:Condens. Matter 29 465901 (2017);
          URL http://www.quantum-espresso.org", 
     in publications or presentations arising from this work. More details at
     http://www.quantum-espresso.org/quote

     Parallel version (MPI), running on    16 processors

     MPI processes distributed on     1 nodes
     R & G space division:  proc/nbgrp/npool/nimage =      16
     Reading input from v2o5.vc-rlx.in

     Current dimensions of program PWSCF are:
     Max number of different atomic species (ntypx) = 10
     Max number of k-points (npk) =  40000
     Max angular momentum in pseudopotentials (lmaxx) =  3

     Subspace diagonalization in iterative solution of the eigenvalue problem:
     one sub-group per band group will be used
     ELPA distributed-memory algorithm (size of sub-group:  2*  2 procs)


     Parallelization info
     --------------------
     sticks:   dense  smooth     PW     G-vecs:    dense   smooth      PW
     Min          74      74     20                 5302     5302     762
     Max          75      75     21                 5311     5311     769
     Sum        1193    1193    323                84903    84903   12255



     bravais-lattice index     =            8
     lattice parameter (alat)  =       6.7498  a.u.
     unit-cell volume          =    1351.1084 (a.u.)^3
     number of atoms/cell      =           14
     number of atomic types    =            2
     number of electrons       =       112.00
     number of Kohn-Sham states=           56
     kinetic-energy cutoff     =      60.0000  Ry
     charge density cutoff     =     240.0000  Ry
     convergence threshold     =      1.0E-10
     mixing beta               =       0.7000
     number of iterations used =            8  plain     mixing
     Exchange-correlation      = PBE ( 1  4  3  4 0 0)
     nstep                     =          500


     celldm(1)=   6.749813  celldm(2)=   1.367024  celldm(3)=   3.213949
     celldm(4)=   0.000000  celldm(5)=   0.000000  celldm(6)=   0.000000

     crystal axes: (cart. coord. in units of alat)
               a(1) = (   1.000000   0.000000   0.000000 )  
               a(2) = (   0.000000   1.367024   0.000000 )  
               a(3) = (   0.000000   0.000000   3.213949 )  

     reciprocal axes: (cart. coord. in units 2 pi/alat)
               b(1) = (  1.000000  0.000000  0.000000 )  
               b(2) = (  0.000000  0.731516  0.000000 )  
               b(3) = (  0.000000  0.000000  0.311144 )  


     PseudoPot. # 1 for V  read from file:
     /home/mpicuntureo/pseudos/v.nc.upf
     MD5 check sum: 40fb93c06b4f9d8c28c5ccd071294a04
     Pseudo is Norm-conserving + core correction, Zval = 13.0
     Generated using ONCVPSP code by D. R. Hamann
     Using radial grid of 1536 points,  6 beta functions with: 
                l(1) =   0
                l(2) =   0
                l(3) =   1
                l(4) =   1
                l(5) =   2
                l(6) =   2

     PseudoPot. # 2 for O  read from file:
     /home/mpicuntureo/pseudos/o.nc.upf
     MD5 check sum: 3e3f909f7470e8921608ab6b1f57bbae
     Pseudo is Norm-conserving + core correction, Zval =  6.0
     Generated using ONCVPSP code by D. R. Hamann
     Using radial grid of  936 points,  5 beta functions with: 
                l(1) =   0
                l(2) =   0
                l(3) =   1
                l(4) =   1
                l(5) =   2

     atomic species   valence    mass     pseudopotential
        V             13.00    50.94150     V ( 1.00)
        O              6.00    15.99940     O ( 1.00)

      8 Sym. Ops., with inversion, found ( 4 have fractional translation)



   Cartesian axes

     site n.     atom                  positions (alat units)
         1           V   tau(   1) = (   0.0000000   0.5342521   2.0850183  )
         2           V   tau(   2) = (   0.5000000   0.8327717   2.7359052  )
         3           V   tau(   3) = (   0.5000000   0.8327717   0.4780438  )
         4           V   tau(   4) = (   0.0000000   0.5342521   1.1289307  )
         5           O   tau(   5) = (   0.5000000   0.6694361   2.1905017  )
         6           O   tau(   6) = (   0.0000000   0.6975877   2.6304218  )
         7           O   tau(   7) = (   0.0000000   0.6975877   0.5835272  )
         8           O   tau(   8) = (   0.5000000   0.6694361   1.0234473  )
         9           O   tau(   9) = (   0.0000000   0.0924598   1.1437779  )
        10           O   tau(  10) = (   0.5000000   1.2745640   0.4631966  )
        11           O   tau(  11) = (   0.5000000   1.2745640   2.7507524  )
        12           O   tau(  12) = (   0.5000000   0.6849446   0.0000000  )
        13           O   tau(  13) = (   0.0000000   0.6820792   1.6069745  )
        14           O   tau(  14) = (   0.0000000   0.0924598   2.0701711  )

     number of k points=     4
                       cart. coord. in units 2pi/alat
        k(    1) = (   0.0000000   0.0000000   0.0000000), wk =   0.2222222
        k(    2) = (   0.0000000   0.2438387   0.0000000), wk =   0.4444444
        k(    3) = (   0.3333333   0.0000000   0.0000000), wk =   0.4444444
        k(    4) = (   0.3333333   0.2438387   0.0000000), wk =   0.8888889

     Dense  grid:    84903 G-vectors     FFT dimensions: (  36,  45, 108)

     Estimated max dynamical RAM per process >      18.63 MB

     Estimated total dynamical RAM >     298.16 MB

     Check: negative core charge=   -0.000037

     Initial potential from superposition of free atoms

     starting charge  111.99579, renormalised to  112.00000
     Starting wfcs are   80 randomized atomic wfcs

     total cpu time spent up to now is        2.0 secs

     Self-consistent Calculation

     iteration #  1     ecut=    60.00 Ry     beta= 0.70
     Davidson diagonalization with overlap
     ethr =  1.00E-02,  avg # of iterations =  2.0

     total cpu time spent up to now is        3.5 secs

     total energy              =    -917.21822128 Ry
     Harris-Foulkes estimate   =    -923.35017411 Ry
     estimated scf accuracy    <       7.70506336 Ry

     iteration #  2     ecut=    60.00 Ry     beta= 0.70
     Davidson diagonalization with overlap
     ethr =  6.88E-03,  avg # of iterations =  6.2

     total cpu time spent up to now is        6.6 secs

     total energy              =    -907.61835050 Ry
     Harris-Foulkes estimate   =    -938.41307056 Ry
     estimated scf accuracy    <     140.05590869 Ry

     iteration #  3     ecut=    60.00 Ry     beta= 0.70
     Davidson diagonalization with overlap
     ethr =  6.88E-03,  avg # of iterations =  5.2

     total cpu time spent up to now is        9.4 secs

     total energy              =    -921.57597746 Ry
     Harris-Foulkes estimate   =    -922.48861008 Ry
     estimated scf accuracy    <       2.99429902 Ry

     iteration #  4     ecut=    60.00 Ry     beta= 0.70
     Davidson diagonalization with overlap
     ethr =  2.67E-03,  avg # of iterations =  4.0

     total cpu time spent up to now is       11.1 secs

     total energy              =    -921.81149489 Ry
     Harris-Foulkes estimate   =    -921.95263824 Ry
     estimated scf accuracy    <       0.86103565 Ry

     iteration #  5     ecut=    60.00 Ry     beta= 0.70
     Davidson diagonalization with overlap
     ethr =  7.69E-04,  avg # of iterations =  3.8

     total cpu time spent up to now is       12.4 secs

     total energy              =    -921.74076333 Ry
     Harris-Foulkes estimate   =    -921.87223204 Ry
     estimated scf accuracy    <       0.46778518 Ry

     iteration #  6     ecut=    60.00 Ry     beta= 0.70
     Davidson diagonalization with overlap
     ethr =  4.18E-04,  avg # of iterations =  4.2

     total cpu time spent up to now is       14.4 secs

     total energy              =    -921.87428246 Ry
     Harris-Foulkes estimate   =    -921.88401437 Ry
     estimated scf accuracy    <       0.16628765 Ry

     iteration #  7     ecut=    60.00 Ry     beta= 0.70
     Davidson diagonalization with overlap
     ethr =  1.48E-04,  avg # of iterations =  2.0

     total cpu time spent up to now is       15.7 secs

     total energy              =    -921.84879031 Ry
     Harris-Foulkes estimate   =    -921.87661888 Ry
     estimated scf accuracy    <       0.14407324 Ry

     iteration #  8     ecut=    60.00 Ry     beta= 0.70
     Davidson diagonalization with overlap
     ethr =  1.29E-04,  avg # of iterations =  3.2

     total cpu time spent up to now is       17.1 secs

     total energy              =    -921.85299230 Ry
     Harris-Foulkes estimate   =    -921.85950950 Ry
     estimated scf accuracy    <       0.02812015 Ry

     iteration #  9     ecut=    60.00 Ry     beta= 0.70
     Davidson diagonalization with overlap
     ethr =  2.51E-05,  avg # of iterations =  4.5

     total cpu time spent up to now is       19.1 secs

     total energy              =    -921.86258955 Ry
     Harris-Foulkes estimate   =    -921.86438009 Ry
     estimated scf accuracy    <       0.00974904 Ry

     iteration # 10     ecut=    60.00 Ry     beta= 0.70
     Davidson diagonalization with overlap
     ethr =  8.70E-06,  avg # of iterations =  2.8

     total cpu time spent up to now is       20.4 secs

     total energy              =    -921.86188198 Ry
     Harris-Foulkes estimate   =    -921.86290850 Ry
     estimated scf accuracy    <       0.00458604 Ry

     iteration # 11     ecut=    60.00 Ry     beta= 0.70
     Davidson diagonalization with overlap
     ethr =  4.09E-06,  avg # of iterations =  4.0

     total cpu time spent up to now is       22.3 secs

     total energy              =    -921.86304808 Ry
     Harris-Foulkes estimate   =    -921.86333168 Ry
     estimated scf accuracy    <       0.00167095 Ry

     iteration # 12     ecut=    60.00 Ry     beta= 0.70
     Davidson diagonalization with overlap
     ethr =  1.49E-06,  avg # of iterations =  1.0

     total cpu time spent up to now is       23.4 secs

     total energy              =    -921.86297503 Ry
     Harris-Foulkes estimate   =    -921.86309250 Ry
     estimated scf accuracy    <       0.00087724 Ry

     iteration # 13     ecut=    60.00 Ry     beta= 0.70
     Davidson diagonalization with overlap
     ethr =  7.83E-07,  avg # of iterations =  4.2

     total cpu time spent up to now is       25.2 secs

     total energy              =    -921.86312482 Ry
     Harris-Foulkes estimate   =    -921.86314278 Ry
     estimated scf accuracy    <       0.00006780 Ry

     iteration # 14     ecut=    60.00 Ry     beta= 0.70
     Davidson diagonalization with overlap
     ethr =  6.05E-08,  avg # of iterations =  4.0

     total cpu time spent up to now is       26.9 secs

     total energy              =    -921.86313810 Ry
     Harris-Foulkes estimate   =    -921.86313976 Ry
     estimated scf accuracy    <       0.00001675 Ry

     iteration # 15     ecut=    60.00 Ry     beta= 0.70
     Davidson diagonalization with overlap
     ethr =  1.50E-08,  avg # of iterations =  4.0

     total cpu time spent up to now is       28.4 secs

     total energy              =    -921.86313792 Ry
     Harris-Foulkes estimate   =    -921.86313953 Ry
     estimated scf accuracy    <       0.00000599 Ry

     iteration # 16     ecut=    60.00 Ry     beta= 0.70
     Davidson diagonalization with overlap
     ethr =  5.35E-09,  avg # of iterations =  4.5

     total cpu time spent up to now is       30.6 secs

     total energy              =    -921.86313939 Ry
     Harris-Foulkes estimate   =    -921.86313952 Ry
     estimated scf accuracy    <       0.00000036 Ry

     iteration # 17     ecut=    60.00 Ry     beta= 0.70
     Davidson diagonalization with overlap
     ethr =  3.23E-10,  avg # of iterations =  4.8

     total cpu time spent up to now is       32.9 secs

     total energy              =    -921.86313950 Ry
     Harris-Foulkes estimate   =    -921.86313951 Ry
     estimated scf accuracy    <       0.00000009 Ry

     iteration # 18     ecut=    60.00 Ry     beta= 0.70
     Davidson diagonalization with overlap
     ethr =  8.36E-11,  avg # of iterations =  2.8

     total cpu time spent up to now is       34.2 secs

     total energy              =    -921.86313950 Ry
     Harris-Foulkes estimate   =    -921.86313951 Ry
     estimated scf accuracy    <       0.00000006 Ry

     iteration # 19     ecut=    60.00 Ry     beta= 0.70
     Davidson diagonalization with overlap
     ethr =  5.04E-11,  avg # of iterations =  4.0

     total cpu time spent up to now is       35.6 secs

     total energy              =    -921.86313950 Ry
     Harris-Foulkes estimate   =    -921.86313950 Ry
     estimated scf accuracy    <          7.3E-09 Ry

     iteration # 20     ecut=    60.00 Ry     beta= 0.70
     Davidson diagonalization with overlap
     ethr =  6.54E-12,  avg # of iterations =  5.0

     total cpu time spent up to now is       37.6 secs

     total energy              =    -921.86313951 Ry
     Harris-Foulkes estimate   =    -921.86313951 Ry
     estimated scf accuracy    <          1.5E-09 Ry

     iteration # 21     ecut=    60.00 Ry     beta= 0.70
     Davidson diagonalization with overlap
     ethr =  1.30E-12,  avg # of iterations =  4.0

     total cpu time spent up to now is       38.9 secs

     total energy              =    -921.86313951 Ry
     Harris-Foulkes estimate   =    -921.86313951 Ry
     estimated scf accuracy    <          1.8E-09 Ry

     iteration # 22     ecut=    60.00 Ry     beta= 0.70
     Davidson diagonalization with overlap
     ethr =  1.30E-12,  avg # of iterations =  1.0

     total cpu time spent up to now is       39.9 secs

     total energy              =    -921.86313950 Ry
     Harris-Foulkes estimate   =    -921.86313951 Ry
     estimated scf accuracy    <          1.2E-09 Ry

     iteration # 23     ecut=    60.00 Ry     beta= 0.70
     Davidson diagonalization with overlap
     ethr =  1.04E-12,  avg # of iterations =  3.5

     total cpu time spent up to now is       41.2 secs

     total energy              =    -921.86313950 Ry
     Harris-Foulkes estimate   =    -921.86313950 Ry
     estimated scf accuracy    <          2.8E-10 Ry

     iteration # 24     ecut=    60.00 Ry     beta= 0.70
     Davidson diagonalization with overlap
     ethr =  2.54E-13,  avg # of iterations =  4.5

     total cpu time spent up to now is       43.4 secs

     End of self-consistent calculation

          k = 0.0000 0.0000 0.0000 ( 10635 PWs)   bands (ev):

   -61.0623 -61.0603 -61.0510 -61.0486 -35.1175 -35.1151 -35.1064 -35.1009
   -35.0143 -34.9613 -34.9365 -34.9139 -34.9115 -34.8859 -34.8780 -34.8755
   -14.5536 -14.4381 -13.4613 -13.3627 -13.2893 -13.2329 -12.8123 -12.7946
   -12.6675 -12.6606  -1.4860  -1.4751  -1.2966  -1.2641  -1.0724  -0.7294
    -0.1504   0.0914   0.1950   0.2509   0.5037   0.5711   0.6576   0.7681
     0.7978   0.9389   1.0499   1.2122   1.2194   1.3001   1.3598   1.4118
     1.7171   1.7580   2.0345   2.0633   2.1504   2.2807   2.3778   2.4471

          k = 0.0000 0.2438 0.0000 ( 10619 PWs)   bands (ev):

   -61.0617 -61.0602 -61.0517 -61.0487 -35.1178 -35.1153 -35.1073 -35.1017
   -35.0142 -34.9612 -34.9365 -34.9139 -34.9114 -34.8859 -34.8780 -34.8755
   -14.5242 -14.4138 -13.4415 -13.3569 -13.2875 -13.2233 -12.8216 -12.7969
   -12.6701 -12.6371  -1.5029  -1.4926  -1.3130  -1.2824  -1.1760  -0.7553
    -0.7128  -0.3582  -0.2706  -0.2113   0.3710   0.3910   0.4461   0.8593
     0.8986   1.0606   1.2278   1.2745   1.3988   1.4792   1.5885   1.7204
     1.8879   1.9895   2.0068   2.1159   2.1980   2.3786   2.4527   2.5215

          k = 0.3333 0.0000 0.0000 ( 10600 PWs)   bands (ev):

   -61.0569 -61.0560 -61.0517 -61.0507 -35.1115 -35.1091 -35.1048 -35.1006
   -35.0119 -34.9870 -34.9720 -34.9646 -34.9163 -34.9113 -34.8954 -34.8844
   -13.9962 -13.8699 -13.3764 -13.2618 -13.2382 -13.1931 -12.7501 -12.7374
   -12.6903 -12.6862  -1.9554  -1.8786  -1.1139  -1.0670  -0.9704  -0.6392
    -0.5422  -0.2466  -0.2166   0.0698   0.1015   0.2132   0.5491   0.6477
     0.7127   0.7548   0.7729   0.8653   0.9923   1.0356   1.3001   1.3405
     1.4061   1.7342   2.1114   2.1947   2.2985   2.4835   2.6002   2.6245

          k = 0.3333 0.2438 0.0000 ( 10593 PWs)   bands (ev):

   -61.0566 -61.0563 -61.0519 -61.0501 -35.1119 -35.1095 -35.1055 -35.1013
   -35.0118 -34.9869 -34.9719 -34.9645 -34.9163 -34.9113 -34.8955 -34.8844
   -13.9712 -13.8520 -13.3618 -13.2609 -13.2313 -13.1850 -12.7574 -12.7376
   -12.6800 -12.6531  -1.9550  -1.8787  -1.1466  -1.0992  -1.0403  -0.6816
    -0.6700  -0.5546  -0.3878  -0.1948  -0.1039  -0.0851   0.3712   0.4166
     0.4431   0.5976   0.7048   0.7774   0.8257   1.1946   1.4698   1.6786
     1.8279   1.9379   2.2184   2.4491   2.4592   2.6115   2.6835   2.7203

     highest occupied level (ev):     2.7203

!    total energy              =    -921.86313951 Ry
     Harris-Foulkes estimate   =    -921.86313951 Ry
     estimated scf accuracy    <          3.4E-11 Ry

     The total energy is the sum of the following terms:

     one-electron contribution =    -663.73616791 Ry
     hartree contribution      =     366.81223788 Ry
     xc contribution           =    -173.91478500 Ry
     ewald contribution        =    -451.02442448 Ry

     convergence has been achieved in  24 iterations

     Forces acting on atoms (cartesian axes, Ry/au):

     atom    1 type  1   force =     0.00000000   -0.00388523    0.00161117
     atom    2 type  1   force =     0.00000000    0.00388523   -0.00161117
     atom    3 type  1   force =    -0.00000000    0.00388523    0.00161117
     atom    4 type  1   force =    -0.00000000   -0.00388523   -0.00161117
     atom    5 type  2   force =     0.00000000   -0.00024780    0.00017103
     atom    6 type  2   force =     0.00000000    0.00024780   -0.00017103
     atom    7 type  2   force =     0.00000000    0.00024780    0.00017103
     atom    8 type  2   force =     0.00000000   -0.00024780   -0.00017103
     atom    9 type  2   force =     0.00000000    0.00433459   -0.00007376
     atom   10 type  2   force =     0.00000000   -0.00433459    0.00007376
     atom   11 type  2   force =     0.00000000   -0.00433459   -0.00007376
     atom   12 type  2   force =     0.00000000   -0.00052013   -0.00000000
     atom   13 type  2   force =     0.00000000    0.00052013    0.00000000
     atom   14 type  2   force =     0.00000000    0.00433459    0.00007376

     Total force =     0.012118     Total SCF correction =     0.000015


     Computing stress (Cartesian axis) and pressure

          total   stress  (Ry/bohr**3)                   (kbar)     P= -118.69
  -0.00078023   0.00000000   0.00000000       -114.78      0.00      0.00
   0.00000000  -0.00084416   0.00000000          0.00   -124.18      0.00
   0.00000000   0.00000000  -0.00079621          0.00      0.00   -117.13


     BFGS Geometry Optimization

     number of scf cycles    =   1
     number of bfgs steps    =   0

     enthalpy new            =    -921.8631395050 Ry

     new trust radius        =       0.1551465364 bohr
     new conv_thr            =            1.0E-10 Ry

     new unit-cell volume =   1270.98325 a.u.^3 (   188.34028 Ang^3 )
     density =      3.20716 g/cm^3

CELL_PARAMETERS (alat=  6.74981256)
   0.980494305   0.000000000   0.000000000
   0.000000000   1.338173995   0.000000000
   0.000000000   0.000000000   3.149974432

ATOMIC_POSITIONS (crystal)
V        0.000000000   0.390393003   0.648814600
V        0.500000003   0.609607003   0.851185409
V        0.500000003   0.609607003   0.148814598
V       -0.000000000   0.390393003   0.351185405
O        0.500000003   0.489676491   0.681568714
O        0.000000000   0.510323516   0.818431294
O        0.000000000   0.510323516   0.181568712
O        0.500000003   0.489676491   0.318431291
O        0.000000000   0.068105597   0.355875907
O        0.500000003   0.931894409   0.144124097
O        0.500000003   0.931894409   0.855875909
O        0.500000003   0.500991662  -0.000000000
O        0.000000000   0.499008345   0.500000003
O        0.000000000   0.068105597   0.644124102



     Writing output data file v2o5.save/
     NEW-OLD atomic charge density approx. for the potential

     Check: negative core charge=   -0.000025
     extrapolated charge  104.93958, renormalised to  112.00000

     total cpu time spent up to now is       47.0 secs

     Self-consistent Calculation

     iteration #  1     ecut=    60.00 Ry     beta= 0.70
     Davidson diagonalization with overlap
     ethr =  1.00E-06,  avg # of iterations = 14.8

     total cpu time spent up to now is       55.1 secs

     total energy              =    -867.70292586 Ry
     Harris-Foulkes estimate   =    -959.42391260 Ry
     estimated scf accuracy    <      57.78583286 Ry

     iteration #  2     ecut=    60.00 Ry     beta= 0.70
     Davidson diagonalization with overlap
     ethr =  1.00E-02,  avg # of iterations =  6.8

     total cpu time spent up to now is       58.9 secs

     total energy              =    -902.38283217 Ry
     Harris-Foulkes estimate   =   -1002.04169626 Ry
     estimated scf accuracy    <     284.04402447 Ry

     iteration #  3     ecut=    60.00 Ry     beta= 0.70
     Davidson diagonalization with overlap
     ethr =  1.00E-02,  avg # of iterations =  7.0

     total cpu time spent up to now is       61.7 secs

     total energy              =    -926.96260295 Ry
     Harris-Foulkes estimate   =    -937.48811383 Ry
     estimated scf accuracy    <      45.45987995 Ry

     iteration #  4     ecut=    60.00 Ry     beta= 0.70
     Davidson diagonalization with overlap
     ethr =  1.00E-02,  avg # of iterations =  3.0

     total cpu time spent up to now is       63.2 secs

     total energy              =    -924.63464906 Ry
     Harris-Foulkes estimate   =    -929.02927323 Ry
     estimated scf accuracy    <      24.19662688 Ry

     iteration #  5     ecut=    60.00 Ry     beta= 0.70
     Davidson diagonalization with overlap
     ethr =  1.00E-02,  avg # of iterations =  1.0

     total cpu time spent up to now is       64.3 secs

     total energy              =    -922.54534383 Ry
     Harris-Foulkes estimate   =    -925.03587826 Ry
     estimated scf accuracy    <      14.95429160 Ry

     iteration #  6     ecut=    60.00 Ry     beta= 0.70
     Davidson diagonalization with overlap
     ethr =  1.00E-02,  avg # of iterations =  1.0

     negative rho (up, down):  2.994E-04 0.000E+00

     total cpu time spent up to now is       65.3 secs

     total energy              =    -920.81128640 Ry
     Harris-Foulkes estimate   =    -922.83717512 Ry
     estimated scf accuracy    <      10.04423373 Ry

     iteration #  7     ecut=    60.00 Ry     beta= 0.70
     Davidson diagonalization with overlap
     ethr =  8.97E-03,  avg # of iterations =  3.8

     total cpu time spent up to now is       66.7 secs

     total energy              =    -921.70739461 Ry
     Harris-Foulkes estimate   =    -921.64410210 Ry
     estimated scf accuracy    <       3.47768670 Ry

     iteration #  8     ecut=    60.00 Ry     beta= 0.70
     Davidson diagonalization with overlap
     ethr =  3.11E-03,  avg # of iterations =  4.0

     total cpu time spent up to now is       68.1 secs

     total energy              =    -922.19254777 Ry
     Harris-Foulkes estimate   =    -922.17994754 Ry
     estimated scf accuracy    <       1.92835613 Ry

     iteration #  9     ecut=    60.00 Ry     beta= 0.70
     Davidson diagonalization with overlap
     ethr =  1.72E-03,  avg # of iterations =  1.8

     total cpu time spent up to now is       69.1 secs

     total energy              =    -922.42897714 Ry
     Harris-Foulkes estimate   =    -922.21731839 Ry
     estimated scf accuracy    <       1.90234212 Ry

     iteration # 10     ecut=    60.00 Ry     beta= 0.70
     Davidson diagonalization with overlap
     ethr =  1.70E-03,  avg # of iterations =  1.0

     negative rho (up, down):  2.576E-02 0.000E+00

     total cpu time spent up to now is       70.2 secs

     total energy              =    -921.54324367 Ry
     Harris-Foulkes estimate   =    -922.46701630 Ry
     estimated scf accuracy    <       2.59791947 Ry

     iteration # 11     ecut=    60.00 Ry     beta= 0.70
     Davidson diagonalization with overlap
     ethr =  1.70E-03,  avg # of iterations =  4.0

     total cpu time spent up to now is       72.2 secs

     total energy              =    -922.39327945 Ry
     Harris-Foulkes estimate   =    -921.95079663 Ry
     estimated scf accuracy    <       0.33958815 Ry

     iteration # 12     ecut=    60.00 Ry     beta= 0.70
     Davidson diagonalization with overlap
     ethr =  3.03E-04,  avg # of iterations =  4.0

     total cpu time spent up to now is       75.4 secs

     total energy              =    -922.58328911 Ry
     Harris-Foulkes estimate   =    -923.01421763 Ry
     estimated scf accuracy    <       5.46642952 Ry

     iteration # 13     ecut=    60.00 Ry     beta= 0.70
     Davidson diagonalization with overlap
     ethr =  3.03E-04,  avg # of iterations =  4.0

     total cpu time spent up to now is       76.9 secs

     total energy              =    -921.62362383 Ry
     Harris-Foulkes estimate   =    -922.62358783 Ry
     estimated scf accuracy    <       3.82496568 Ry

     iteration # 14     ecut=    60.00 Ry     beta= 0.70
     Davidson diagonalization with overlap
     ethr =  3.03E-04,  avg # of iterations =  5.0

     total cpu time spent up to now is       80.2 secs

     total energy              =    -921.97465467 Ry
     Harris-Foulkes estimate   =    -922.13726978 Ry
     estimated scf accuracy    <       1.22152095 Ry

     iteration # 15     ecut=    60.00 Ry     beta= 0.70
     Davidson diagonalization with overlap
     ethr =  3.03E-04,  avg # of iterations =  1.0

     negative rho (up, down):  7.171E-08 0.000E+00

     total cpu time spent up to now is       81.3 secs

     total energy              =    -921.89213583 Ry
     Harris-Foulkes estimate   =    -921.98521034 Ry
     estimated scf accuracy    <       0.81096574 Ry

     iteration # 16     ecut=    60.00 Ry     beta= 0.70
     Davidson diagonalization with overlap
     ethr =  3.03E-04,  avg # of iterations =  7.8

     total cpu time spent up to now is       84.4 secs

     total energy              =    -919.75030786 Ry
     Harris-Foulkes estimate   =    -923.52190512 Ry
     estimated scf accuracy    <      18.39265242 Ry

     iteration # 17     ecut=    60.00 Ry     beta= 0.70
     Davidson diagonalization with overlap
     ethr =  3.03E-04,  avg # of iterations =  7.8

     total cpu time spent up to now is       87.3 secs

     total energy              =    -921.94004943 Ry
     Harris-Foulkes estimate   =    -921.93333110 Ry
     estimated scf accuracy    <       0.28325749 Ry

     iteration # 18     ecut=    60.00 Ry     beta= 0.70
     Davidson diagonalization with overlap
     ethr =  2.53E-04,  avg # of iterations =  3.2

     total cpu time spent up to now is       88.4 secs

     total energy              =    -921.86866461 Ry
     Harris-Foulkes estimate   =    -921.95413291 Ry
     estimated scf accuracy    <       0.35868989 Ry

     iteration # 19     ecut=    60.00 Ry     beta= 0.70
     Davidson diagonalization with overlap
     ethr =  2.53E-04,  avg # of iterations =  3.2

     total cpu time spent up to now is       89.8 secs

     total energy              =    -921.89506440 Ry
     Harris-Foulkes estimate   =    -921.88735078 Ry
     estimated scf accuracy    <       0.10145378 Ry

     iteration # 20     ecut=    60.00 Ry     beta= 0.70
     Davidson diagonalization with overlap
     ethr =  9.06E-05,  avg # of iterations =  4.0

     total cpu time spent up to now is       91.0 secs

     total energy              =    -921.91063174 Ry
     Harris-Foulkes estimate   =    -921.89942382 Ry
     estimated scf accuracy    <       0.10816550 Ry

     iteration # 21     ecut=    60.00 Ry     beta= 0.70
     Davidson diagonalization with overlap
     ethr =  9.06E-05,  avg # of iterations =  1.0

     total cpu time spent up to now is       92.1 secs

     total energy              =    -921.95593163 Ry
     Harris-Foulkes estimate   =    -921.91214517 Ry
     estimated scf accuracy    <       0.13866374 Ry

     iteration # 22     ecut=    60.00 Ry     beta= 0.70
     Davidson diagonalization with overlap
     ethr =  9.06E-05,  avg # of iterations =  4.0

     total cpu time spent up to now is       94.1 secs

     total energy              =    -921.93343945 Ry
     Harris-Foulkes estimate   =    -921.97865400 Ry
     estimated scf accuracy    <       0.57292427 Ry

     iteration # 23     ecut=    60.00 Ry     beta= 0.70
     Davidson diagonalization with overlap
     ethr =  9.06E-05,  avg # of iterations =  1.0

     total cpu time spent up to now is       95.3 secs

     total energy              =    -921.80425201 Ry
     Harris-Foulkes estimate   =    -921.93590958 Ry
     estimated scf accuracy    <       0.45352198 Ry

     iteration # 24     ecut=    60.00 Ry     beta= 0.70
     Davidson diagonalization with overlap
     ethr =  9.06E-05,  avg # of iterations =  4.2

     total cpu time spent up to now is       98.1 secs

     total energy              =    -921.88816577 Ry
     Harris-Foulkes estimate   =    -921.89919481 Ry
     estimated scf accuracy    <       0.08492634 Ry

     iteration # 25     ecut=    60.00 Ry     beta= 0.70
     Davidson diagonalization with overlap
     ethr =  7.58E-05,  avg # of iterations =  1.0

     total cpu time spent up to now is       99.3 secs

     total energy              =    -921.90048410 Ry
     Harris-Foulkes estimate   =    -921.88944619 Ry
     estimated scf accuracy    <       0.04807511 Ry

     iteration # 26     ecut=    60.00 Ry     beta= 0.70
     Davidson diagonalization with overlap
     ethr =  4.29E-05,  avg # of iterations =  1.2

     total cpu time spent up to now is      100.4 secs

     total energy              =    -921.88956763 Ry
     Harris-Foulkes estimate   =    -921.90178365 Ry
     estimated scf accuracy    <       0.07473507 Ry

     iteration # 27     ecut=    60.00 Ry     beta= 0.70
     Davidson diagonalization with overlap
     ethr =  4.29E-05,  avg # of iterations =  1.0

     total cpu time spent up to now is      101.5 secs

     total energy              =    -921.86924261 Ry
     Harris-Foulkes estimate   =    -921.89025006 Ry
     estimated scf accuracy    <       0.04891190 Ry

     iteration # 28     ecut=    60.00 Ry     beta= 0.70
     Davidson diagonalization with overlap
     ethr =  4.29E-05,  avg # of iterations =  4.0

     total cpu time spent up to now is      104.1 secs

     total energy              =    -921.89479255 Ry
     Harris-Foulkes estimate   =    -921.89754653 Ry
     estimated scf accuracy    <       0.07051816 Ry

     iteration # 29     ecut=    60.00 Ry     beta= 0.70
     Davidson diagonalization with overlap
     ethr =  4.29E-05,  avg # of iterations =  1.0

     total cpu time spent up to now is      105.4 secs

     total energy              =    -921.87776892 Ry
     Harris-Foulkes estimate   =    -921.89500068 Ry
     estimated scf accuracy    <       0.06287733 Ry

     iteration # 30     ecut=    60.00 Ry     beta= 0.70
     Davidson diagonalization with overlap
     ethr =  4.29E-05,  avg # of iterations =  4.0

     total cpu time spent up to now is      107.6 secs

     total energy              =    -921.88821023 Ry
     Harris-Foulkes estimate   =    -921.88844737 Ry
     estimated scf accuracy    <       0.00310652 Ry

     iteration # 31     ecut=    60.00 Ry     beta= 0.70
     Davidson diagonalization with overlap
     ethr =  2.77E-06,  avg # of iterations =  3.8

     total cpu time spent up to now is      109.0 secs

     total energy              =    -921.88798427 Ry
     Harris-Foulkes estimate   =    -921.88839921 Ry
     estimated scf accuracy    <       0.00265844 Ry

     iteration # 32     ecut=    60.00 Ry     beta= 0.70
     Davidson diagonalization with overlap
     ethr =  2.37E-06,  avg # of iterations =  4.0

     total cpu time spent up to now is      110.3 secs

     total energy              =    -921.88805732 Ry
     Harris-Foulkes estimate   =    -921.88814727 Ry
     estimated scf accuracy    <       0.00065837 Ry

     iteration # 33     ecut=    60.00 Ry     beta= 0.70
     Davidson diagonalization with overlap
     ethr =  5.88E-07,  avg # of iterations =  4.0

     total cpu time spent up to now is      111.8 secs

     total energy              =    -921.88815394 Ry
     Harris-Foulkes estimate   =    -921.88816642 Ry
     estimated scf accuracy    <       0.00004436 Ry

     iteration # 34     ecut=    60.00 Ry     beta= 0.70
     Davidson diagonalization with overlap
     ethr =  3.96E-08,  avg # of iterations =  4.8

     total cpu time spent up to now is      114.1 secs

     total energy              =    -921.88816848 Ry
     Harris-Foulkes estimate   =    -921.88817264 Ry
     estimated scf accuracy    <       0.00001692 Ry

     iteration # 35     ecut=    60.00 Ry     beta= 0.70
     Davidson diagonalization with overlap
     ethr =  1.51E-08,  avg # of iterations =  4.0

     total cpu time spent up to now is      115.7 secs

     total energy              =    -921.88816943 Ry
     Harris-Foulkes estimate   =    -921.88816989 Ry
     estimated scf accuracy    <       0.00000156 Ry

     iteration # 36     ecut=    60.00 Ry     beta= 0.70
     Davidson diagonalization with overlap
     ethr =  1.40E-09,  avg # of iterations =  4.8

     total cpu time spent up to now is      118.1 secs

     total energy              =    -921.88817028 Ry
     Harris-Foulkes estimate   =    -921.88817044 Ry
     estimated scf accuracy    <       0.00000146 Ry

     iteration # 37     ecut=    60.00 Ry     beta= 0.70
     Davidson diagonalization with overlap
     ethr =  1.30E-09,  avg # of iterations =  1.0

     total cpu time spent up to now is      119.3 secs

     total energy              =    -921.88816992 Ry
     Harris-Foulkes estimate   =    -921.88817029 Ry
     estimated scf accuracy    <       0.00000101 Ry

     iteration # 38     ecut=    60.00 Ry     beta= 0.70
     Davidson diagonalization with overlap
     ethr =  9.01E-10,  avg # of iterations =  4.0

     total cpu time spent up to now is      121.4 secs

     total energy              =    -921.88817026 Ry
     Harris-Foulkes estimate   =    -921.88817031 Ry
     estimated scf accuracy    <       0.00000073 Ry

     iteration # 39     ecut=    60.00 Ry     beta= 0.70
     Davidson diagonalization with overlap
     ethr =  6.55E-10,  avg # of iterations =  1.0

     total cpu time spent up to now is      122.5 secs

     total energy              =    -921.88817016 Ry
     Harris-Foulkes estimate   =    -921.88817026 Ry
     estimated scf accuracy    <       0.00000060 Ry

     iteration # 40     ecut=    60.00 Ry     beta= 0.70
     Davidson diagonalization with overlap
     ethr =  5.39E-10,  avg # of iterations =  3.0

     total cpu time spent up to now is      123.9 secs

     total energy              =    -921.88817019 Ry
     Harris-Foulkes estimate   =    -921.88817020 Ry
     estimated scf accuracy    <       0.00000006 Ry

     iteration # 41     ecut=    60.00 Ry     beta= 0.70
     Davidson diagonalization with overlap
     ethr =  5.36E-11,  avg # of iterations =  4.5

     total cpu time spent up to now is      126.5 secs

     total energy              =    -921.88817022 Ry
     Harris-Foulkes estimate   =    -921.88817022 Ry
     estimated scf accuracy    <       0.00000004 Ry

     iteration # 42     ecut=    60.00 Ry     beta= 0.70
     Davidson diagonalization with overlap
     ethr =  3.98E-11,  avg # of iterations =  1.0

     total cpu time spent up to now is      127.6 secs

     total energy              =    -921.88817021 Ry
     Harris-Foulkes estimate   =    -921.88817022 Ry
     estimated scf accuracy    <       0.00000003 Ry

     iteration # 43     ecut=    60.00 Ry     beta= 0.70
     Davidson diagonalization with overlap
     ethr =  2.75E-11,  avg # of iterations =  4.0

     total cpu time spent up to now is      129.2 secs

     total energy              =    -921.88817022 Ry
     Harris-Foulkes estimate   =    -921.88817022 Ry
     estimated scf accuracy    <          8.6E-09 Ry

     iteration # 44     ecut=    60.00 Ry     beta= 0.70
     Davidson diagonalization with overlap
     ethr =  7.64E-12,  avg # of iterations =  4.2

     total cpu time spent up to now is      130.6 secs

     total energy              =    -921.88817022 Ry
     Harris-Foulkes estimate   =    -921.88817022 Ry
     estimated scf accuracy    <          5.4E-09 Ry

     iteration # 45     ecut=    60.00 Ry     beta= 0.70
     Davidson diagonalization with overlap
     ethr =  4.82E-12,  avg # of iterations =  2.5

     total cpu time spent up to now is      131.8 secs

     total energy              =    -921.88817021 Ry
     Harris-Foulkes estimate   =    -921.88817022 Ry
     estimated scf accuracy    <          3.2E-09 Ry

     iteration # 46     ecut=    60.00 Ry     beta= 0.70
     Davidson diagonalization with overlap
     ethr =  2.84E-12,  avg # of iterations =  3.2

     total cpu time spent up to now is      133.1 secs

     total energy              =    -921.88817021 Ry
     Harris-Foulkes estimate   =    -921.88817022 Ry
     estimated scf accuracy    <          1.6E-09 Ry

     iteration # 47     ecut=    60.00 Ry     beta= 0.70
     Davidson diagonalization with overlap
     ethr =  1.42E-12,  avg # of iterations =  4.0

     total cpu time spent up to now is      134.8 secs

     End of self-consistent calculation

          k = 0.0000 0.0000 0.0000 ( 10635 PWs)   bands (ev):

   -60.2229 -60.2202 -60.2078 -60.2048 -34.4030 -34.3999 -34.3874 -34.3810
   -34.2126 -34.1442 -34.1126 -34.0820 -34.0787 -34.0465 -34.0356 -34.0323
   -14.1200 -13.9903 -12.9088 -12.8489 -12.7494 -12.6321 -12.1873 -12.1657
   -12.0205 -12.0113  -1.0602  -1.0457  -0.8884  -0.8820  -0.5827  -0.2511
     0.2619   0.4985   0.6099   0.7258   0.9890   1.0606   1.2095   1.3087
     1.3866   1.5343   1.5581   1.7351   1.7381   1.7914   1.9462   1.9525
     2.2683   2.3592   2.6785   2.7075   2.7413   2.8711   2.9571   3.0743

          k = 0.0000 0.2491 0.0000 ( 10619 PWs)   bands (ev):

   -60.2225 -60.2201 -60.2083 -60.2049 -34.4033 -34.4001 -34.3888 -34.3824
   -34.2124 -34.1440 -34.1126 -34.0819 -34.0786 -34.0465 -34.0356 -34.0323
   -14.0857 -13.9619 -12.8894 -12.8424 -12.7432 -12.6205 -12.1957 -12.1659
   -12.0192 -11.9788  -1.0808  -1.0666  -0.9106  -0.9031  -0.7538  -0.4048
    -0.2200   0.1162   0.1336   0.1653   0.8309   0.9115   0.9192   1.3909
     1.4045   1.5560   1.7532   1.9139   1.9941   2.0449   2.1402   2.2927
     2.4939   2.6390   2.6562   2.7023   2.7938   2.9866   3.0789   3.1294

          k = 0.3400 0.0000 0.0000 ( 10600 PWs)   bands (ev):

   -60.2164 -60.2143 -60.2091 -60.2070 -34.3951 -34.3918 -34.3861 -34.3810
   -34.2092 -34.1770 -34.1586 -34.1484 -34.0860 -34.0795 -34.0584 -34.0442
   -13.4986 -13.3543 -12.8171 -12.6998 -12.6472 -12.5810 -12.1144 -12.0972
   -12.0415 -12.0397  -1.5605  -1.4606  -0.7218  -0.5989  -0.4716  -0.1595
    -0.1025   0.1411   0.2362   0.4769   0.5332   0.6288   1.0299   1.1420
     1.2087   1.3044   1.3169   1.4553   1.5298   1.6257   1.8575   1.8990
     1.9531   2.3099   2.6890   2.7969   2.8599   3.0668   3.2237   3.2389

          k = 0.3400 0.2491 0.0000 ( 10593 PWs)   bands (ev):

   -60.2161 -60.2146 -60.2092 -60.2066 -34.3956 -34.3923 -34.3871 -34.3820
   -34.2091 -34.1769 -34.1584 -34.1483 -34.0860 -34.0795 -34.0585 -34.0442
   -13.4692 -13.3331 -12.8034 -12.6987 -12.6355 -12.5715 -12.1193 -12.0933
   -12.0292 -11.9954  -1.5591  -1.4608  -0.7635  -0.6507  -0.5900  -0.3309
    -0.1986  -0.1460   0.0383   0.2185   0.3438   0.3809   0.8398   0.9239
     0.9606   1.1336   1.2474   1.3009   1.3523   1.7032   2.0103   2.2454
     2.4317   2.5657   2.7973   3.0432   3.0721   3.2123   3.3274   3.3358

     highest occupied level (ev):     3.3358

!    total energy              =    -921.88817021 Ry
     Harris-Foulkes estimate   =    -921.88817021 Ry
     estimated scf accuracy    <          1.9E-11 Ry

     The total energy is the sum of the following terms:

     one-electron contribution =    -650.18827593 Ry
     hartree contribution      =     362.94942248 Ry
     xc contribution           =    -174.53427936 Ry
     ewald contribution        =    -460.11503741 Ry

     convergence has been achieved in  47 iterations

     Forces acting on atoms (cartesian axes, Ry/au):

     atom    1 type  1   force =     0.00000000    0.05388975    0.01194345
     atom    2 type  1   force =     0.00000000   -0.05388975   -0.01194345
     atom    3 type  1   force =     0.00000000   -0.05388975    0.01194345
     atom    4 type  1   force =    -0.00000000    0.05388975   -0.01194345
     atom    5 type  2   force =     0.00000000    0.00811266   -0.00895941
     atom    6 type  2   force =     0.00000000   -0.00811266    0.00895941
     atom    7 type  2   force =     0.00000000   -0.00811266   -0.00895941
     atom    8 type  2   force =     0.00000000    0.00811266    0.00895941
     atom    9 type  2   force =     0.00000000   -0.08494829    0.00304656
     atom   10 type  2   force =     0.00000000    0.08494829   -0.00304656
     atom   11 type  2   force =     0.00000000    0.08494829    0.00304656
     atom   12 type  2   force =     0.00000000   -0.02302598    0.00000000
     atom   13 type  2   force =     0.00000000    0.02302598   -0.00000000
     atom   14 type  2   force =     0.00000000   -0.08494829   -0.00304656

     Total force =     0.206721     Total SCF correction =     0.000015


     Computing stress (Cartesian axis) and pressure

          total   stress  (Ry/bohr**3)                   (kbar)     P=   27.80
   0.00010077   0.00000000   0.00000000         14.82      0.00      0.00
   0.00000000   0.00033804   0.00000000          0.00     49.73      0.00
   0.00000000   0.00000000   0.00012803          0.00      0.00     18.83


     number of scf cycles    =   2
     number of bfgs steps    =   1

     enthalpy old            =    -921.8631395050 Ry
     enthalpy new            =    -921.8881702150 Ry

     CASE: enthalpy_new < enthalpy_old

     new trust radius        =       0.0629363047 bohr
     new conv_thr            =            1.0E-10 Ry

     new unit-cell volume =   1254.61686 a.u.^3 (   185.91504 Ang^3 )
     density =      3.24900 g/cm^3

CELL_PARAMETERS (alat=  6.74981256)
   0.974848215   0.000000000   0.000000000
   0.000000000   1.335791267   0.000000000
   0.000000000   0.000000000   3.132999910

ATOMIC_POSITIONS (crystal)
V        0.000000000   0.394762628   0.649271219
V        0.500000003   0.605237379   0.850728791
V        0.500000003   0.605237379   0.149271217
V       -0.000000000   0.394762628   0.350728787
O        0.500000003   0.490348466   0.681250837
O        0.000000000   0.509651542   0.818749172
O        0.000000000   0.509651542   0.181250835
O        0.500000003   0.490348466   0.318749168
O        0.000000000   0.061142400   0.355983719
O        0.500000003   0.938857606   0.144016285
O        0.500000003   0.938857606   0.855983721
O        0.500000003   0.499033005  -0.000000000
O        0.000000000   0.500967002   0.500000003
O        0.000000000   0.061142400   0.644016290



     Writing output data file v2o5.save/
     NEW-OLD atomic charge density approx. for the potential

     Check: negative core charge=   -0.000023
     extrapolated charge  110.53902, renormalised to  112.00000

     total cpu time spent up to now is      138.6 secs

     Self-consistent Calculation

     iteration #  1     ecut=    60.00 Ry     beta= 0.70
     Davidson diagonalization with overlap
     ethr =  1.00E-06,  avg # of iterations = 13.5

     total cpu time spent up to now is      146.4 secs

     total energy              =    -921.04523763 Ry
     Harris-Foulkes estimate   =    -928.89640659 Ry
     estimated scf accuracy    <       0.82655755 Ry

     iteration #  2     ecut=    60.00 Ry     beta= 0.70
     Davidson diagonalization with overlap
     ethr =  7.38E-04,  avg # of iterations =  4.0

     total cpu time spent up to now is      149.5 secs

     total energy              =    -921.46605187 Ry
     Harris-Foulkes estimate   =    -923.94439719 Ry
     estimated scf accuracy    <       8.98940972 Ry

     iteration #  3     ecut=    60.00 Ry     beta= 0.70
     Davidson diagonalization with overlap
     ethr =  7.38E-04,  avg # of iterations =  4.5

     total cpu time spent up to now is      152.9 secs

     total energy              =    -921.92308933 Ry
     Harris-Foulkes estimate   =    -922.05933534 Ry
     estimated scf accuracy    <       1.00348059 Ry

     iteration #  4     ecut=    60.00 Ry     beta= 0.70
     Davidson diagonalization with overlap
     ethr =  7.38E-04,  avg # of iterations =  1.0

     total cpu time spent up to now is      153.9 secs

     total energy              =    -921.81481295 Ry
     Harris-Foulkes estimate   =    -921.93252425 Ry
     estimated scf accuracy    <       0.69516822 Ry

     iteration #  5     ecut=    60.00 Ry     beta= 0.70
     Davidson diagonalization with overlap
     ethr =  6.21E-04,  avg # of iterations =  3.0

     total cpu time spent up to now is      155.3 secs

     total energy              =    -921.88375335 Ry
     Harris-Foulkes estimate   =    -921.88130999 Ry
     estimated scf accuracy    <       0.04116621 Ry

     iteration #  6     ecut=    60.00 Ry     beta= 0.70
     Davidson diagonalization with overlap
     ethr =  3.68E-05,  avg # of iterations =  5.0

     total cpu time spent up to now is      157.4 secs

     total energy              =    -921.89012051 Ry
     Harris-Foulkes estimate   =    -921.89811827 Ry
     estimated scf accuracy    <       0.01803864 Ry

     iteration #  7     ecut=    60.00 Ry     beta= 0.70
     Davidson diagonalization with overlap
     ethr =  1.61E-05,  avg # of iterations =  5.0

     total cpu time spent up to now is      159.5 secs

     total energy              =    -921.89471984 Ry
     Harris-Foulkes estimate   =    -921.89530561 Ry
     estimated scf accuracy    <       0.01278975 Ry

     iteration #  8     ecut=    60.00 Ry     beta= 0.70
     Davidson diagonalization with overlap
     ethr =  1.14E-05,  avg # of iterations =  1.0

     total cpu time spent up to now is      160.6 secs

     total energy              =    -921.89263684 Ry
     Harris-Foulkes estimate   =    -921.89481295 Ry
     estimated scf accuracy    <       0.01121805 Ry

     iteration #  9     ecut=    60.00 Ry     beta= 0.70
     Davidson diagonalization with overlap
     ethr =  1.00E-05,  avg # of iterations =  3.8

     total cpu time spent up to now is      161.9 secs

     total energy              =    -921.89352102 Ry
     Harris-Foulkes estimate   =    -921.89350742 Ry
     estimated scf accuracy    <       0.00114299 Ry

     iteration # 10     ecut=    60.00 Ry     beta= 0.70
     Davidson diagonalization with overlap
     ethr =  1.02E-06,  avg # of iterations =  4.8

     total cpu time spent up to now is      163.6 secs

     total energy              =    -921.89365895 Ry
     Harris-Foulkes estimate   =    -921.89372871 Ry
     estimated scf accuracy    <       0.00069051 Ry

     iteration # 11     ecut=    60.00 Ry     beta= 0.70
     Davidson diagonalization with overlap
     ethr =  6.17E-07,  avg # of iterations =  3.0

     total cpu time spent up to now is      164.8 secs

     total energy              =    -921.89354613 Ry
     Harris-Foulkes estimate   =    -921.89367594 Ry
     estimated scf accuracy    <       0.00048766 Ry

     iteration # 12     ecut=    60.00 Ry     beta= 0.70
     Davidson diagonalization with overlap
     ethr =  4.35E-07,  avg # of iterations =  4.8

     total cpu time spent up to now is      166.8 secs

     total energy              =    -921.89385629 Ry
     Harris-Foulkes estimate   =    -921.89373111 Ry
     estimated scf accuracy    <       0.00092674 Ry

     iteration # 13     ecut=    60.00 Ry     beta= 0.70
     Davidson diagonalization with overlap
     ethr =  4.35E-07,  avg # of iterations =  4.0

     total cpu time spent up to now is      168.0 secs

     total energy              =    -921.89386617 Ry
     Harris-Foulkes estimate   =    -921.89388171 Ry
     estimated scf accuracy    <       0.00174262 Ry

     iteration # 14     ecut=    60.00 Ry     beta= 0.70
     Davidson diagonalization with overlap
     ethr =  4.35E-07,  avg # of iterations =  1.0

     total cpu time spent up to now is      169.2 secs

     total energy              =    -921.89359807 Ry
     Harris-Foulkes estimate   =    -921.89387226 Ry
     estimated scf accuracy    <       0.00175418 Ry

     iteration # 15     ecut=    60.00 Ry     beta= 0.70
     Davidson diagonalization with overlap
     ethr =  4.35E-07,  avg # of iterations =  4.0

     total cpu time spent up to now is      171.1 secs

     total energy              =    -921.89347039 Ry
     Harris-Foulkes estimate   =    -921.89368380 Ry
     estimated scf accuracy    <       0.00066890 Ry

     iteration # 16     ecut=    60.00 Ry     beta= 0.70
     Davidson diagonalization with overlap
     ethr =  4.35E-07,  avg # of iterations =  4.2

     total cpu time spent up to now is      173.7 secs

     total energy              =    -921.89360475 Ry
     Harris-Foulkes estimate   =    -921.89363767 Ry
     estimated scf accuracy    <       0.00018970 Ry

     iteration # 17     ecut=    60.00 Ry     beta= 0.70
     Davidson diagonalization with overlap
     ethr =  1.69E-07,  avg # of iterations =  1.8

     total cpu time spent up to now is      174.9 secs

     total energy              =    -921.89358988 Ry
     Harris-Foulkes estimate   =    -921.89360940 Ry
     estimated scf accuracy    <       0.00009703 Ry

     iteration # 18     ecut=    60.00 Ry     beta= 0.70
     Davidson diagonalization with overlap
     ethr =  8.66E-08,  avg # of iterations =  4.0

     total cpu time spent up to now is      176.9 secs

     total energy              =    -921.89361628 Ry
     Harris-Foulkes estimate   =    -921.89362131 Ry
     estimated scf accuracy    <       0.00004987 Ry

     iteration # 19     ecut=    60.00 Ry     beta= 0.70
     Davidson diagonalization with overlap
     ethr =  4.45E-08,  avg # of iterations =  1.0

     total cpu time spent up to now is      178.1 secs

     total energy              =    -921.89360959 Ry
     Harris-Foulkes estimate   =    -921.89361688 Ry
     estimated scf accuracy    <       0.00003532 Ry

     iteration # 20     ecut=    60.00 Ry     beta= 0.70
     Davidson diagonalization with overlap
     ethr =  3.15E-08,  avg # of iterations =  4.0

     total cpu time spent up to now is      180.0 secs

     total energy              =    -921.89361546 Ry
     Harris-Foulkes estimate   =    -921.89361538 Ry
     estimated scf accuracy    <       0.00000139 Ry

     iteration # 21     ecut=    60.00 Ry     beta= 0.70
     Davidson diagonalization with overlap
     ethr =  1.24E-09,  avg # of iterations =  4.5

     total cpu time spent up to now is      182.0 secs

     total energy              =    -921.89361529 Ry
     Harris-Foulkes estimate   =    -921.89361586 Ry
     estimated scf accuracy    <       0.00000265 Ry

     iteration # 22     ecut=    60.00 Ry     beta= 0.70
     Davidson diagonalization with overlap
     ethr =  1.24E-09,  avg # of iterations =  4.0

     total cpu time spent up to now is      183.7 secs

     total energy              =    -921.89361534 Ry
     Harris-Foulkes estimate   =    -921.89361544 Ry
     estimated scf accuracy    <       0.00000032 Ry

     iteration # 23     ecut=    60.00 Ry     beta= 0.70
     Davidson diagonalization with overlap
     ethr =  2.86E-10,  avg # of iterations =  4.0

     total cpu time spent up to now is      186.2 secs

     total energy              =    -921.89361548 Ry
     Harris-Foulkes estimate   =    -921.89361551 Ry
     estimated scf accuracy    <       0.00000028 Ry

     iteration # 24     ecut=    60.00 Ry     beta= 0.70
     Davidson diagonalization with overlap
     ethr =  2.53E-10,  avg # of iterations =  1.0

     total cpu time spent up to now is      187.4 secs

     total energy              =    -921.89361546 Ry
     Harris-Foulkes estimate   =    -921.89361548 Ry
     estimated scf accuracy    <       0.00000019 Ry

     iteration # 25     ecut=    60.00 Ry     beta= 0.70
     Davidson diagonalization with overlap
     ethr =  1.69E-10,  avg # of iterations =  1.0

     total cpu time spent up to now is      188.5 secs

     total energy              =    -921.89361546 Ry
     Harris-Foulkes estimate   =    -921.89361547 Ry
     estimated scf accuracy    <       0.00000013 Ry

     iteration # 26     ecut=    60.00 Ry     beta= 0.70
     Davidson diagonalization with overlap
     ethr =  1.14E-10,  avg # of iterations =  1.8

     total cpu time spent up to now is      189.6 secs

     total energy              =    -921.89361544 Ry
     Harris-Foulkes estimate   =    -921.89361546 Ry
     estimated scf accuracy    <       0.00000009 Ry

     iteration # 27     ecut=    60.00 Ry     beta= 0.70
     Davidson diagonalization with overlap
     ethr =  8.16E-11,  avg # of iterations =  4.0

     total cpu time spent up to now is      191.8 secs

     total energy              =    -921.89361548 Ry
     Harris-Foulkes estimate   =    -921.89361549 Ry
     estimated scf accuracy    <       0.00000013 Ry

     iteration # 28     ecut=    60.00 Ry     beta= 0.70
     Davidson diagonalization with overlap
     ethr =  8.16E-11,  avg # of iterations =  1.0

     total cpu time spent up to now is      192.9 secs

     total energy              =    -921.89361547 Ry
     Harris-Foulkes estimate   =    -921.89361548 Ry
     estimated scf accuracy    <       0.00000009 Ry

     iteration # 29     ecut=    60.00 Ry     beta= 0.70
     Davidson diagonalization with overlap
     ethr =  8.06E-11,  avg # of iterations =  1.0

     total cpu time spent up to now is      194.0 secs

     total energy              =    -921.89361547 Ry
     Harris-Foulkes estimate   =    -921.89361547 Ry
     estimated scf accuracy    <       0.00000007 Ry

     iteration # 30     ecut=    60.00 Ry     beta= 0.70
     Davidson diagonalization with overlap
     ethr =  6.68E-11,  avg # of iterations =  1.0

     total cpu time spent up to now is      195.1 secs

     total energy              =    -921.89361547 Ry
     Harris-Foulkes estimate   =    -921.89361547 Ry
     estimated scf accuracy    <       0.00000007 Ry

     iteration # 31     ecut=    60.00 Ry     beta= 0.70
     Davidson diagonalization with overlap
     ethr =  6.23E-11,  avg # of iterations =  3.2

     total cpu time spent up to now is      196.3 secs

     total energy              =    -921.89361547 Ry
     Harris-Foulkes estimate   =    -921.89361547 Ry
     estimated scf accuracy    <       0.00000003 Ry

     iteration # 32     ecut=    60.00 Ry     beta= 0.70
     Davidson diagonalization with overlap
     ethr =  2.28E-11,  avg # of iterations =  2.0

     total cpu time spent up to now is      197.5 secs

     total energy              =    -921.89361547 Ry
     Harris-Foulkes estimate   =    -921.89361548 Ry
     estimated scf accuracy    <       0.00000003 Ry

     iteration # 33     ecut=    60.00 Ry     beta= 0.70
     Davidson diagonalization with overlap
     ethr =  2.28E-11,  avg # of iterations =  1.0

     total cpu time spent up to now is      198.6 secs

     total energy              =    -921.89361547 Ry
     Harris-Foulkes estimate   =    -921.89361547 Ry
     estimated scf accuracy    <       0.00000003 Ry

     iteration # 34     ecut=    60.00 Ry     beta= 0.70
     Davidson diagonalization with overlap
     ethr =  2.28E-11,  avg # of iterations =  1.0

     total cpu time spent up to now is      199.6 secs

     total energy              =    -921.89361547 Ry
     Harris-Foulkes estimate   =    -921.89361547 Ry
     estimated scf accuracy    <       0.00000002 Ry

     iteration # 35     ecut=    60.00 Ry     beta= 0.70
     Davidson diagonalization with overlap
     ethr =  1.88E-11,  avg # of iterations =  1.0

     total cpu time spent up to now is      200.8 secs

     total energy              =    -921.89361547 Ry
     Harris-Foulkes estimate   =    -921.89361547 Ry
     estimated scf accuracy    <       0.00000002 Ry

     iteration # 36     ecut=    60.00 Ry     beta= 0.70
     Davidson diagonalization with overlap
     ethr =  1.70E-11,  avg # of iterations =  4.0

     total cpu time spent up to now is      202.6 secs

     total energy              =    -921.89361547 Ry
     Harris-Foulkes estimate   =    -921.89361547 Ry
     estimated scf accuracy    <          3.0E-10 Ry

     iteration # 37     ecut=    60.00 Ry     beta= 0.70
     Davidson diagonalization with overlap
     ethr =  2.72E-13,  avg # of iterations =  5.5

     total cpu time spent up to now is      205.2 secs

     total energy              =    -921.89361547 Ry
     Harris-Foulkes estimate   =    -921.89361547 Ry
     estimated scf accuracy    <          2.1E-10 Ry

     iteration # 38     ecut=    60.00 Ry     beta= 0.70
     Davidson diagonalization with overlap
     ethr =  1.89E-13,  avg # of iterations =  2.0

     total cpu time spent up to now is      206.4 secs

     total energy              =    -921.89361547 Ry
     Harris-Foulkes estimate   =    -921.89361547 Ry
     estimated scf accuracy    <          1.4E-10 Ry

     iteration # 39     ecut=    60.00 Ry     beta= 0.70
     Davidson diagonalization with overlap
     ethr =  1.22E-13,  avg # of iterations =  5.0

     total cpu time spent up to now is      209.2 secs

     total energy              =    -921.89361547 Ry
     Harris-Foulkes estimate   =    -921.89361547 Ry
     estimated scf accuracy    <          9.9E-10 Ry

     iteration # 40     ecut=    60.00 Ry     beta= 0.70
     Davidson diagonalization with overlap
     ethr =  1.22E-13,  avg # of iterations =  5.0

     total cpu time spent up to now is      212.0 secs

     total energy              =    -921.89361547 Ry
     Harris-Foulkes estimate   =    -921.89361547 Ry
     estimated scf accuracy    <       0.00000002 Ry

     iteration # 41     ecut=    60.00 Ry     beta= 0.70
     Davidson diagonalization with overlap
     ethr =  1.22E-13,  avg # of iterations =  5.0

     total cpu time spent up to now is      214.8 secs

     total energy              =    -921.89361547 Ry
     Harris-Foulkes estimate   =    -921.89361547 Ry
     estimated scf accuracy    <          8.4E-09 Ry

     iteration # 42     ecut=    60.00 Ry     beta= 0.70
     Davidson diagonalization with overlap
     ethr =  1.22E-13,  avg # of iterations =  4.5

     total cpu time spent up to now is      217.3 secs

     total energy              =    -921.89361547 Ry
     Harris-Foulkes estimate   =    -921.89361547 Ry
     estimated scf accuracy    <          3.3E-09 Ry

     iteration # 43     ecut=    60.00 Ry     beta= 0.70
     Davidson diagonalization with overlap
     ethr =  1.22E-13,  avg # of iterations =  4.0

     total cpu time spent up to now is      219.3 secs

     total energy              =    -921.89361547 Ry
     Harris-Foulkes estimate   =    -921.89361547 Ry
     estimated scf accuracy    <          1.6E-09 Ry

     iteration # 44     ecut=    60.00 Ry     beta= 0.70
     Davidson diagonalization with overlap
     ethr =  1.22E-13,  avg # of iterations =  4.0

     total cpu time spent up to now is      221.3 secs

     total energy              =    -921.89361547 Ry
     Harris-Foulkes estimate   =    -921.89361547 Ry
     estimated scf accuracy    <          3.7E-10 Ry

     iteration # 45     ecut=    60.00 Ry     beta= 0.70
     Davidson diagonalization with overlap
     ethr =  1.22E-13,  avg # of iterations =  2.8

     total cpu time spent up to now is      222.6 secs

     total energy              =    -921.89361547 Ry
     Harris-Foulkes estimate   =    -921.89361547 Ry
     estimated scf accuracy    <          5.9E-10 Ry

     iteration # 46     ecut=    60.00 Ry     beta= 0.70
     Davidson diagonalization with overlap
     ethr =  1.22E-13,  avg # of iterations =  1.5

     total cpu time spent up to now is      223.7 secs

     total energy              =    -921.89361547 Ry
     Harris-Foulkes estimate   =    -921.89361547 Ry
     estimated scf accuracy    <          4.5E-10 Ry

     iteration # 47     ecut=    60.00 Ry     beta= 0.70
     Davidson diagonalization with overlap
     ethr =  1.22E-13,  avg # of iterations =  1.0

     total cpu time spent up to now is      224.7 secs

     total energy              =    -921.89361547 Ry
     Harris-Foulkes estimate   =    -921.89361547 Ry
     estimated scf accuracy    <          3.6E-10 Ry

     iteration # 48     ecut=    60.00 Ry     beta= 0.70
     Davidson diagonalization with overlap
     ethr =  1.22E-13,  avg # of iterations =  2.0

     total cpu time spent up to now is      225.8 secs

     total energy              =    -921.89361547 Ry
     Harris-Foulkes estimate   =    -921.89361547 Ry
     estimated scf accuracy    <          2.8E-10 Ry

     iteration # 49     ecut=    60.00 Ry     beta= 0.70
     Davidson diagonalization with overlap
     ethr =  1.22E-13,  avg # of iterations =  1.0

     total cpu time spent up to now is      226.9 secs

     total energy              =    -921.89361547 Ry
     Harris-Foulkes estimate   =    -921.89361547 Ry
     estimated scf accuracy    <          2.4E-10 Ry

     iteration # 50     ecut=    60.00 Ry     beta= 0.70
     Davidson diagonalization with overlap
     ethr =  1.22E-13,  avg # of iterations =  4.0

     total cpu time spent up to now is      228.6 secs

     End of self-consistent calculation

          k = 0.0000 0.0000 0.0000 ( 10635 PWs)   bands (ev):

   -60.1616 -60.1588 -60.1437 -60.1406 -34.2148 -34.1825 -34.1675 -34.1522
   -34.1510 -34.1108 -34.0708 -34.0697 -34.0674 -34.0169 -34.0135 -34.0112
   -14.2103 -14.0825 -12.9864 -12.9632 -12.7606 -12.6101 -11.9155 -11.8811
   -11.7277 -11.7009  -1.1115  -1.0956  -0.9865  -0.9692  -0.5685  -0.1511
     0.3103   0.7131   0.7882   0.8692   1.1982   1.2854   1.6254   1.6414
     1.6578   1.7625   1.7635   1.7915   2.1592   2.1692   2.3065   2.3412
     2.3559   2.3594   2.6901   2.8838   2.9738   3.0129   3.1813   3.3082

          k = 0.0000 0.2495 0.0000 ( 10619 PWs)   bands (ev):

   -60.1611 -60.1587 -60.1442 -60.1407 -34.2150 -34.1829 -34.1688 -34.1523
   -34.1522 -34.1105 -34.0707 -34.0698 -34.0673 -34.0169 -34.0135 -34.0112
   -14.1818 -14.0590 -12.9766 -12.9578 -12.7482 -12.6015 -11.9183 -11.8743
   -11.7167 -11.6654  -1.1274  -1.1119  -0.9996  -0.9856  -0.6902  -0.2646
    -0.1388   0.1966   0.3752   0.4523   1.0716   1.1671   1.2200   1.6465
     1.7108   1.7425   1.7759   1.9924   2.1769   2.5013   2.5359   2.5600
     2.6925   2.6969   2.7831   2.9026   2.9198   3.1509   3.2508   3.3638

          k = 0.3419 0.0000 0.0000 ( 10600 PWs)   bands (ev):

   -60.1542 -60.1520 -60.1455 -60.1433 -34.2092 -34.1835 -34.1688 -34.1572
   -34.1546 -34.1527 -34.1359 -34.1233 -34.0580 -34.0557 -34.0356 -34.0131
   -13.5566 -13.4162 -12.8563 -12.7755 -12.6501 -12.5584 -11.8326 -11.8019
   -11.7455 -11.7250  -1.6807  -1.5826  -0.7958  -0.6468  -0.4513  -0.2025
    -0.1436   0.1599   0.3259   0.5830   0.7079   0.9183   1.2166   1.3484
     1.4384   1.6715   1.7053   1.7670   1.8933   1.9783   2.0146   2.1172
     2.3248   2.4267   2.8361   3.0564   3.1303   3.2134   3.3071   3.3256

          k = 0.3419 0.2495 0.0000 ( 10593 PWs)   bands (ev):

   -60.1540 -60.1522 -60.1456 -60.1429 -34.2093 -34.1839 -34.1688 -34.1582
   -34.1554 -34.1530 -34.1361 -34.1232 -34.0580 -34.0557 -34.0356 -34.0131
   -13.5333 -13.3995 -12.8503 -12.7744 -12.6358 -12.5510 -11.8288 -11.7871
   -11.7264 -11.6805  -1.6812  -1.5836  -0.8202  -0.6795  -0.5312  -0.2386
    -0.2365  -0.1460   0.1382   0.4057   0.4369   0.5812   0.9418   1.1073
     1.1780   1.4171   1.5546   1.5845   1.7177   1.9816   2.2357   2.6225
     2.6456   2.7723   3.0757   3.2122   3.2391   3.3734   3.4064   3.4571

     highest occupied level (ev):     3.4571

!    total energy              =    -921.89361547 Ry
     Harris-Foulkes estimate   =    -921.89361547 Ry
     estimated scf accuracy    <          3.4E-13 Ry

     The total energy is the sum of the following terms:

     one-electron contribution =    -639.04038556 Ry
     hartree contribution      =     357.78658989 Ry
     xc contribution           =    -174.39623186 Ry
     ewald contribution        =    -466.24358794 Ry

     convergence has been achieved in  50 iterations

     Forces acting on atoms (cartesian axes, Ry/au):

     atom    1 type  1   force =     0.00000000   -0.06084375   -0.00276352
     atom    2 type  1   force =     0.00000000    0.06084375    0.00276352
     atom    3 type  1   force =     0.00000000    0.06084375   -0.00276352
     atom    4 type  1   force =    -0.00000000   -0.06084375    0.00276352
     atom    5 type  2   force =     0.00000000    0.01254538   -0.00926123
     atom    6 type  2   force =     0.00000000   -0.01254538    0.00926123
     atom    7 type  2   force =     0.00000000   -0.01254538   -0.00926123
     atom    8 type  2   force =     0.00000000    0.01254538    0.00926123
     atom    9 type  2   force =     0.00000000    0.01668787   -0.00027006
     atom   10 type  2   force =     0.00000000   -0.01668787    0.00027006
     atom   11 type  2   force =     0.00000000   -0.01668787   -0.00027006
     atom   12 type  2   force =     0.00000000   -0.02672069    0.00000000
     atom   13 type  2   force =     0.00000000    0.02672069    0.00000000
     atom   14 type  2   force =     0.00000000    0.01668787    0.00027006

     Total force =     0.135474     Total SCF correction =     0.000001


     Computing stress (Cartesian axis) and pressure

          total   stress  (Ry/bohr**3)                   (kbar)     P=    8.52
   0.00040230   0.00000000   0.00000000         59.18      0.00      0.00
   0.00000000  -0.00058254   0.00000000          0.00    -85.69      0.00
   0.00000000   0.00000000   0.00035406          0.00      0.00     52.08


     number of scf cycles    =   3
     number of bfgs steps    =   2

     enthalpy old            =    -921.8881702150 Ry
     enthalpy new            =    -921.8936154724 Ry

     CASE: enthalpy_new < enthalpy_old

     new trust radius        =       0.0510115561 bohr
     new conv_thr            =            5.4E-11 Ry

     new unit-cell volume =   1263.91736 a.u.^3 (   187.29323 Ang^3 )
     density =      3.22509 g/cm^3

CELL_PARAMETERS (alat=  6.74981256)
   0.981867939   0.000000000   0.000000000
   0.000000000   1.327244002   0.000000000
   0.000000000   0.000000000   3.153840252

ATOMIC_POSITIONS (crystal)
V        0.000000000   0.392357375   0.649353236
V        0.500000003   0.607642632   0.850646774
V        0.500000003   0.607642632   0.149353234
V       -0.000000000   0.392357375   0.350646770
O        0.500000003   0.491458191   0.680862606
O        0.000000000   0.508541817   0.819137403
O        0.000000000   0.508541817   0.180862603
O        0.500000003   0.491458191   0.319137400
O        0.000000000   0.059562292   0.356017336
O        0.500000003   0.940437714   0.143982669
O        0.500000003   0.940437714   0.856017338
O        0.500000003   0.496487094  -0.000000000
O        0.000000000   0.503512913   0.500000003
O        0.000000000   0.059562292   0.643982673



     Writing output data file v2o5.save/
     NEW-OLD atomic charge density approx. for the potential

     Check: negative core charge=   -0.000025
     extrapolated charge  112.82412, renormalised to  112.00000

     total cpu time spent up to now is      232.5 secs

     Self-consistent Calculation

     iteration #  1     ecut=    60.00 Ry     beta= 0.70
     Davidson diagonalization with overlap
     ethr =  1.00E-06,  avg # of iterations = 10.0

     total cpu time spent up to now is      237.7 secs

     total energy              =    -921.70654636 Ry
     Harris-Foulkes estimate   =    -918.05932701 Ry
     estimated scf accuracy    <       0.19488132 Ry

     iteration #  2     ecut=    60.00 Ry     beta= 0.70
     Davidson diagonalization with overlap
     ethr =  1.74E-04,  avg # of iterations =  9.5

     total cpu time spent up to now is      241.0 secs

     total energy              =    -921.22233467 Ry
     Harris-Foulkes estimate   =    -922.69333363 Ry
     estimated scf accuracy    <       9.71654421 Ry

     iteration #  3     ecut=    60.00 Ry     beta= 0.70
     Davidson diagonalization with overlap
     ethr =  1.74E-04,  avg # of iterations =  5.0

     total cpu time spent up to now is      244.5 secs

     total energy              =    -921.90719310 Ry
     Harris-Foulkes estimate   =    -921.92021893 Ry
     estimated scf accuracy    <       0.06869036 Ry

     iteration #  4     ecut=    60.00 Ry     beta= 0.70
     Davidson diagonalization with overlap
     ethr =  6.13E-05,  avg # of iterations =  3.0

     total cpu time spent up to now is      245.9 secs

     total energy              =    -921.90685924 Ry
     Harris-Foulkes estimate   =    -921.91019460 Ry
     estimated scf accuracy    <       0.03738831 Ry

     iteration #  5     ecut=    60.00 Ry     beta= 0.70
     Davidson diagonalization with overlap
     ethr =  3.34E-05,  avg # of iterations =  1.0

     total cpu time spent up to now is      247.2 secs

     total energy              =    -921.90396970 Ry
     Harris-Foulkes estimate   =    -921.90770504 Ry
     estimated scf accuracy    <       0.02900053 Ry

     iteration #  6     ecut=    60.00 Ry     beta= 0.70
     Davidson diagonalization with overlap
     ethr =  2.59E-05,  avg # of iterations =  2.2

     total cpu time spent up to now is      248.6 secs

     total energy              =    -921.90207836 Ry
     Harris-Foulkes estimate   =    -921.90481645 Ry
     estimated scf accuracy    <       0.01727410 Ry

     iteration #  7     ecut=    60.00 Ry     beta= 0.70
     Davidson diagonalization with overlap
     ethr =  1.54E-05,  avg # of iterations =  4.0

     total cpu time spent up to now is      250.5 secs

     total energy              =    -921.90600815 Ry
     Harris-Foulkes estimate   =    -921.90598015 Ry
     estimated scf accuracy    <       0.00157984 Ry

     iteration #  8     ecut=    60.00 Ry     beta= 0.70
     Davidson diagonalization with overlap
     ethr =  1.41E-06,  avg # of iterations =  3.8

     total cpu time spent up to now is      252.1 secs

     total energy              =    -921.90622038 Ry
     Harris-Foulkes estimate   =    -921.90618959 Ry
     estimated scf accuracy    <       0.00217287 Ry

     iteration #  9     ecut=    60.00 Ry     beta= 0.70
     Davidson diagonalization with overlap
     ethr =  1.41E-06,  avg # of iterations =  1.0

     total cpu time spent up to now is      253.3 secs

     total energy              =    -921.90612744 Ry
     Harris-Foulkes estimate   =    -921.90622828 Ry
     estimated scf accuracy    <       0.00226330 Ry

     iteration # 10     ecut=    60.00 Ry     beta= 0.70
     Davidson diagonalization with overlap
     ethr =  1.41E-06,  avg # of iterations =  1.0

     total cpu time spent up to now is      254.5 secs

     total energy              =    -921.90594259 Ry
     Harris-Foulkes estimate   =    -921.90614527 Ry
     estimated scf accuracy    <       0.00204287 Ry

     iteration # 11     ecut=    60.00 Ry     beta= 0.70
     Davidson diagonalization with overlap
     ethr =  1.41E-06,  avg # of iterations =  2.8

     total cpu time spent up to now is      255.7 secs

     total energy              =    -921.90591603 Ry
     Harris-Foulkes estimate   =    -921.90597863 Ry
     estimated scf accuracy    <       0.00137493 Ry

     iteration # 12     ecut=    60.00 Ry     beta= 0.70
     Davidson diagonalization with overlap
     ethr =  1.23E-06,  avg # of iterations =  1.0

     total cpu time spent up to now is      256.9 secs

     total energy              =    -921.90590016 Ry
     Harris-Foulkes estimate   =    -921.90592872 Ry
     estimated scf accuracy    <       0.00117023 Ry

     iteration # 13     ecut=    60.00 Ry     beta= 0.70
     Davidson diagonalization with overlap
     ethr =  1.04E-06,  avg # of iterations =  1.0

     total cpu time spent up to now is      258.0 secs

     total energy              =    -921.90591833 Ry
     Harris-Foulkes estimate   =    -921.90590842 Ry
     estimated scf accuracy    <       0.00102370 Ry

     iteration # 14     ecut=    60.00 Ry     beta= 0.70
     Davidson diagonalization with overlap
     ethr =  9.14E-07,  avg # of iterations =  1.0

     total cpu time spent up to now is      259.2 secs

     total energy              =    -921.90585501 Ry
     Harris-Foulkes estimate   =    -921.90592291 Ry
     estimated scf accuracy    <       0.00100109 Ry

     iteration # 15     ecut=    60.00 Ry     beta= 0.70
     Davidson diagonalization with overlap
     ethr =  8.94E-07,  avg # of iterations =  1.0

     total cpu time spent up to now is      260.3 secs

     total energy              =    -921.90627796 Ry
     Harris-Foulkes estimate   =    -921.90586527 Ry
     estimated scf accuracy    <       0.00073552 Ry

     iteration # 16     ecut=    60.00 Ry     beta= 0.70
     Davidson diagonalization with overlap
     ethr =  6.57E-07,  avg # of iterations =  4.2

     total cpu time spent up to now is      262.6 secs

     total energy              =    -921.90517542 Ry
     Harris-Foulkes estimate   =    -921.90648756 Ry
     estimated scf accuracy    <       0.00327006 Ry

     iteration # 17     ecut=    60.00 Ry     beta= 0.70
     Davidson diagonalization with overlap
     ethr =  6.57E-07,  avg # of iterations =  5.0

     total cpu time spent up to now is      265.9 secs

     total energy              =    -921.90579637 Ry
     Harris-Foulkes estimate   =    -921.90594184 Ry
     estimated scf accuracy    <       0.00077603 Ry

     iteration # 18     ecut=    60.00 Ry     beta= 0.70
     Davidson diagonalization with overlap
     ethr =  6.57E-07,  avg # of iterations =  1.0

     total cpu time spent up to now is      267.0 secs

     total energy              =    -921.90574262 Ry
     Harris-Foulkes estimate   =    -921.90581524 Ry
     estimated scf accuracy    <       0.00034905 Ry

     iteration # 19     ecut=    60.00 Ry     beta= 0.70
     Davidson diagonalization with overlap
     ethr =  3.12E-07,  avg # of iterations =  4.0

     total cpu time spent up to now is      269.0 secs

     total energy              =    -921.90583521 Ry
     Harris-Foulkes estimate   =    -921.90584238 Ry
     estimated scf accuracy    <       0.00009179 Ry

     iteration # 20     ecut=    60.00 Ry     beta= 0.70
     Davidson diagonalization with overlap
     ethr =  8.20E-08,  avg # of iterations =  2.0

     total cpu time spent up to now is      270.2 secs

     total energy              =    -921.90583226 Ry
     Harris-Foulkes estimate   =    -921.90583683 Ry
     estimated scf accuracy    <       0.00007253 Ry

     iteration # 21     ecut=    60.00 Ry     beta= 0.70
     Davidson diagonalization with overlap
     ethr =  6.48E-08,  avg # of iterations =  1.0

     total cpu time spent up to now is      271.3 secs

     total energy              =    -921.90583223 Ry
     Harris-Foulkes estimate   =    -921.90583398 Ry
     estimated scf accuracy    <       0.00005206 Ry

     iteration # 22     ecut=    60.00 Ry     beta= 0.70
     Davidson diagonalization with overlap
     ethr =  4.65E-08,  avg # of iterations =  1.0

     total cpu time spent up to now is      272.4 secs

     total energy              =    -921.90583248 Ry
     Harris-Foulkes estimate   =    -921.90583320 Ry
     estimated scf accuracy    <       0.00004499 Ry

     iteration # 23     ecut=    60.00 Ry     beta= 0.70
     Davidson diagonalization with overlap
     ethr =  4.02E-08,  avg # of iterations =  1.0

     total cpu time spent up to now is      273.4 secs

     total energy              =    -921.90583069 Ry
     Harris-Foulkes estimate   =    -921.90583318 Ry
     estimated scf accuracy    <       0.00003891 Ry

     iteration # 24     ecut=    60.00 Ry     beta= 0.70
     Davidson diagonalization with overlap
     ethr =  3.47E-08,  avg # of iterations =  1.0

     total cpu time spent up to now is      274.4 secs

     total energy              =    -921.90582789 Ry
     Harris-Foulkes estimate   =    -921.90583154 Ry
     estimated scf accuracy    <       0.00002837 Ry

     iteration # 25     ecut=    60.00 Ry     beta= 0.70
     Davidson diagonalization with overlap
     ethr =  2.53E-08,  avg # of iterations =  4.2

     total cpu time spent up to now is      276.0 secs

     total energy              =    -921.90583148 Ry
     Harris-Foulkes estimate   =    -921.90583185 Ry
     estimated scf accuracy    <       0.00000336 Ry

     iteration # 26     ecut=    60.00 Ry     beta= 0.70
     Davidson diagonalization with overlap
     ethr =  3.00E-09,  avg # of iterations =  5.0

     total cpu time spent up to now is      278.2 secs

     total energy              =    -921.90583251 Ry
     Harris-Foulkes estimate   =    -921.90583270 Ry
     estimated scf accuracy    <       0.00000383 Ry

     iteration # 27     ecut=    60.00 Ry     beta= 0.70
     Davidson diagonalization with overlap
     ethr =  3.00E-09,  avg # of iterations =  1.0

     total cpu time spent up to now is      279.2 secs

     total energy              =    -921.90583098 Ry
     Harris-Foulkes estimate   =    -921.90583253 Ry
     estimated scf accuracy    <       0.00000329 Ry

     iteration # 28     ecut=    60.00 Ry     beta= 0.70
     Davidson diagonalization with overlap
     ethr =  2.94E-09,  avg # of iterations =  5.0

     total cpu time spent up to now is      281.4 secs

     total energy              =    -921.90583087 Ry
     Harris-Foulkes estimate   =    -921.90583301 Ry
     estimated scf accuracy    <       0.00000484 Ry

     iteration # 29     ecut=    60.00 Ry     beta= 0.70
     Davidson diagonalization with overlap
     ethr =  2.94E-09,  avg # of iterations =  4.8

     total cpu time spent up to now is      283.8 secs

     total energy              =    -921.90583212 Ry
     Harris-Foulkes estimate   =    -921.90583235 Ry
     estimated scf accuracy    <       0.00000120 Ry

     iteration # 30     ecut=    60.00 Ry     beta= 0.70
     Davidson diagonalization with overlap
     ethr =  1.07E-09,  avg # of iterations =  2.0

     total cpu time spent up to now is      284.9 secs

     total energy              =    -921.90583200 Ry
     Harris-Foulkes estimate   =    -921.90583216 Ry
     estimated scf accuracy    <       0.00000065 Ry

     iteration # 31     ecut=    60.00 Ry     beta= 0.70
     Davidson diagonalization with overlap
     ethr =  5.80E-10,  avg # of iterations =  4.0

     total cpu time spent up to now is      286.8 secs

     total energy              =    -921.90583217 Ry
     Harris-Foulkes estimate   =    -921.90583221 Ry
     estimated scf accuracy    <       0.00000039 Ry

     iteration # 32     ecut=    60.00 Ry     beta= 0.70
     Davidson diagonalization with overlap
     ethr =  3.47E-10,  avg # of iterations =  2.0

[...]
        k(    2) = (   0.0000000   0.2688541   0.0000000), wk =   0.4444444
        k(    3) = (   0.3384704   0.0000000   0.0000000), wk =   0.4444444
        k(    4) = (   0.3384704   0.2688541   0.0000000), wk =   0.8888889

     Dense  grid:    74589 G-vectors     FFT dimensions: (  36,  45, 108)

     Estimated max dynamical RAM per process >      17.29 MB

     Estimated total dynamical RAM >     276.69 MB

     Check: negative core charge=   -0.000040

     Initial potential from superposition of free atoms

     starting charge  111.99579, renormalised to  112.00000
     Starting wfcs are   80 randomized atomic wfcs

     total cpu time spent up to now is     1362.2 secs

     Self-consistent Calculation

     iteration #  1     ecut=    60.00 Ry     beta= 0.70
     Davidson diagonalization with overlap
     ethr =  1.00E-06,  avg # of iterations =  7.8

     total cpu time spent up to now is     1364.5 secs

     total energy              =    -917.43428099 Ry
     Harris-Foulkes estimate   =    -923.34255261 Ry
     estimated scf accuracy    <       7.43951081 Ry

     iteration #  2     ecut=    60.00 Ry     beta= 0.70
     Davidson diagonalization with overlap
     ethr =  6.64E-03,  avg # of iterations =  6.5

     total cpu time spent up to now is     1365.9 secs

     total energy              =    -907.90153695 Ry
     Harris-Foulkes estimate   =    -937.12558929 Ry
     estimated scf accuracy    <     131.37341274 Ry

     iteration #  3     ecut=    60.00 Ry     beta= 0.70
     Davidson diagonalization with overlap
     ethr =  6.64E-03,  avg # of iterations =  5.2

     total cpu time spent up to now is     1367.4 secs

     total energy              =    -921.62809242 Ry
     Harris-Foulkes estimate   =    -922.40597520 Ry
     estimated scf accuracy    <       2.64251059 Ry

     iteration #  4     ecut=    60.00 Ry     beta= 0.70
     Davidson diagonalization with overlap
     ethr =  2.36E-03,  avg # of iterations =  3.8

     total cpu time spent up to now is     1368.2 secs

     total energy              =    -921.78516604 Ry
     Harris-Foulkes estimate   =    -921.92311853 Ry
     estimated scf accuracy    <       0.88542429 Ry

     iteration #  5     ecut=    60.00 Ry     beta= 0.70
     Davidson diagonalization with overlap
     ethr =  7.91E-04,  avg # of iterations =  3.8

     total cpu time spent up to now is     1368.8 secs

     total energy              =    -921.70367834 Ry
     Harris-Foulkes estimate   =    -921.84374940 Ry
     estimated scf accuracy    <       0.47627870 Ry

     iteration #  6     ecut=    60.00 Ry     beta= 0.70
     Davidson diagonalization with overlap
     ethr =  4.25E-04,  avg # of iterations =  4.0

     total cpu time spent up to now is     1369.9 secs

     total energy              =    -921.85279919 Ry
     Harris-Foulkes estimate   =    -921.86826195 Ry
     estimated scf accuracy    <       0.19603806 Ry

     iteration #  7     ecut=    60.00 Ry     beta= 0.70
     Davidson diagonalization with overlap
     ethr =  1.75E-04,  avg # of iterations =  2.0

     total cpu time spent up to now is     1370.4 secs

     total energy              =    -921.82243822 Ry
     Harris-Foulkes estimate   =    -921.85524281 Ry
     estimated scf accuracy    <       0.15863944 Ry

     iteration #  8     ecut=    60.00 Ry     beta= 0.70
     Davidson diagonalization with overlap
     ethr =  1.42E-04,  avg # of iterations =  3.8

     total cpu time spent up to now is     1371.2 secs

     total energy              =    -921.84299788 Ry
     Harris-Foulkes estimate   =    -921.84356224 Ry
     estimated scf accuracy    <       0.00258428 Ry

     iteration #  9     ecut=    60.00 Ry     beta= 0.70
     Davidson diagonalization with overlap
     ethr =  2.31E-06,  avg # of iterations =  5.2

     total cpu time spent up to now is     1372.4 secs

     total energy              =    -921.84479062 Ry
     Harris-Foulkes estimate   =    -921.84517577 Ry
     estimated scf accuracy    <       0.00309792 Ry

     iteration # 10     ecut=    60.00 Ry     beta= 0.70
     Davidson diagonalization with overlap
     ethr =  2.31E-06,  avg # of iterations =  1.0

     total cpu time spent up to now is     1372.9 secs

     total energy              =    -921.84429477 Ry
     Harris-Foulkes estimate   =    -921.84484396 Ry
     estimated scf accuracy    <       0.00213413 Ry

     iteration # 11     ecut=    60.00 Ry     beta= 0.70
     Davidson diagonalization with overlap
     ethr =  1.91E-06,  avg # of iterations =  3.8

     total cpu time spent up to now is     1373.7 secs

     total energy              =    -921.84465662 Ry
     Harris-Foulkes estimate   =    -921.84471774 Ry
     estimated scf accuracy    <       0.00024362 Ry

     iteration # 12     ecut=    60.00 Ry     beta= 0.70
     Davidson diagonalization with overlap
     ethr =  2.18E-07,  avg # of iterations =  4.0

     total cpu time spent up to now is     1374.3 secs

     total energy              =    -921.84465708 Ry
     Harris-Foulkes estimate   =    -921.84468169 Ry
     estimated scf accuracy    <       0.00007100 Ry

     iteration # 13     ecut=    60.00 Ry     beta= 0.70
     Davidson diagonalization with overlap
     ethr =  6.34E-08,  avg # of iterations =  4.0

     total cpu time spent up to now is     1375.2 secs

     total energy              =    -921.84468488 Ry
     Harris-Foulkes estimate   =    -921.84468843 Ry
     estimated scf accuracy    <       0.00002462 Ry

     iteration # 14     ecut=    60.00 Ry     beta= 0.70
     Davidson diagonalization with overlap
     ethr =  2.20E-08,  avg # of iterations =  1.5

     total cpu time spent up to now is     1375.7 secs

     total energy              =    -921.84468111 Ry
     Harris-Foulkes estimate   =    -921.84468535 Ry
     estimated scf accuracy    <       0.00001582 Ry

     iteration # 15     ecut=    60.00 Ry     beta= 0.70
     Davidson diagonalization with overlap
     ethr =  1.41E-08,  avg # of iterations =  4.0

     total cpu time spent up to now is     1376.6 secs

     total energy              =    -921.84468462 Ry
     Harris-Foulkes estimate   =    -921.84468483 Ry
     estimated scf accuracy    <       0.00000168 Ry

     iteration # 16     ecut=    60.00 Ry     beta= 0.70
     Davidson diagonalization with overlap
     ethr =  1.50E-09,  avg # of iterations =  3.8

     total cpu time spent up to now is     1377.2 secs

     total energy              =    -921.84468444 Ry
     Harris-Foulkes estimate   =    -921.84468475 Ry
     estimated scf accuracy    <       0.00000120 Ry

     iteration # 17     ecut=    60.00 Ry     beta= 0.70
     Davidson diagonalization with overlap
     ethr =  1.07E-09,  avg # of iterations =  4.0

     total cpu time spent up to now is     1377.8 secs

     total energy              =    -921.84468456 Ry
     Harris-Foulkes estimate   =    -921.84468456 Ry
     estimated scf accuracy    <       0.00000018 Ry

     iteration # 18     ecut=    60.00 Ry     beta= 0.70
     Davidson diagonalization with overlap
     ethr =  1.58E-10,  avg # of iterations =  4.5

     total cpu time spent up to now is     1378.6 secs

     total energy              =    -921.84468456 Ry
     Harris-Foulkes estimate   =    -921.84468459 Ry
     estimated scf accuracy    <       0.00000013 Ry

     iteration # 19     ecut=    60.00 Ry     beta= 0.70
     Davidson diagonalization with overlap
     ethr =  1.19E-10,  avg # of iterations =  4.0

     total cpu time spent up to now is     1379.4 secs

     total energy              =    -921.84468457 Ry
     Harris-Foulkes estimate   =    -921.84468457 Ry
     estimated scf accuracy    <       0.00000001 Ry

     iteration # 20     ecut=    60.00 Ry     beta= 0.70
     Davidson diagonalization with overlap
     ethr =  1.19E-11,  avg # of iterations =  5.0

     total cpu time spent up to now is     1380.5 secs

     total energy              =    -921.84468457 Ry
     Harris-Foulkes estimate   =    -921.84468457 Ry
     estimated scf accuracy    <          3.5E-09 Ry

     iteration # 21     ecut=    60.00 Ry     beta= 0.70
     Davidson diagonalization with overlap
     ethr =  3.08E-12,  avg # of iterations =  3.2

     total cpu time spent up to now is     1381.0 secs

     total energy              =    -921.84468457 Ry
     Harris-Foulkes estimate   =    -921.84468457 Ry
     estimated scf accuracy    <          2.1E-09 Ry

     iteration # 22     ecut=    60.00 Ry     beta= 0.70
     Davidson diagonalization with overlap
     ethr =  1.84E-12,  avg # of iterations =  3.0

     total cpu time spent up to now is     1381.7 secs

     total energy              =    -921.84468457 Ry
     Harris-Foulkes estimate   =    -921.84468457 Ry
     estimated scf accuracy    <          8.6E-10 Ry

     iteration # 23     ecut=    60.00 Ry     beta= 0.70
     Davidson diagonalization with overlap
     ethr =  7.70E-13,  avg # of iterations =  4.0

     total cpu time spent up to now is     1382.6 secs

     total energy              =    -921.84468457 Ry
     Harris-Foulkes estimate   =    -921.84468457 Ry
     estimated scf accuracy    <          2.6E-11 Ry

     iteration # 24     ecut=    60.00 Ry     beta= 0.70
     Davidson diagonalization with overlap
     ethr =  1.00E-13,  avg # of iterations =  4.0

     total cpu time spent up to now is     1383.3 secs

     total energy              =    -921.84468457 Ry
     Harris-Foulkes estimate   =    -921.84468457 Ry
     estimated scf accuracy    <          3.2E-11 Ry

     iteration # 25     ecut=    60.00 Ry     beta= 0.70
     Davidson diagonalization with overlap
     ethr =  1.00E-13,  avg # of iterations =  1.5

     total cpu time spent up to now is     1383.8 secs

     total energy              =    -921.84468457 Ry
     Harris-Foulkes estimate   =    -921.84468457 Ry
     estimated scf accuracy    <          2.1E-11 Ry

     iteration # 26     ecut=    60.00 Ry     beta= 0.70
     Davidson diagonalization with overlap
     ethr =  1.00E-13,  avg # of iterations =  1.0

     total cpu time spent up to now is     1384.3 secs

     total energy              =    -921.84468457 Ry
     Harris-Foulkes estimate   =    -921.84468457 Ry
     estimated scf accuracy    <          1.5E-11 Ry

     iteration # 27     ecut=    60.00 Ry     beta= 0.70
     Davidson diagonalization with overlap
     ethr =  1.00E-13,  avg # of iterations =  1.5

     total cpu time spent up to now is     1384.9 secs

     total energy              =    -921.84468457 Ry
     Harris-Foulkes estimate   =    -921.84468457 Ry
     estimated scf accuracy    <          2.0E-12 Ry

     iteration # 28     ecut=    60.00 Ry     beta= 0.70
     Davidson diagonalization with overlap
     ethr =  1.00E-13,  avg # of iterations =  2.0

     total cpu time spent up to now is     1385.5 secs

     total energy              =    -921.84468457 Ry
     Harris-Foulkes estimate   =    -921.84468457 Ry
     estimated scf accuracy    <          3.4E-12 Ry

     iteration # 29     ecut=    60.00 Ry     beta= 0.70
     Davidson diagonalization with overlap
     ethr =  1.00E-13,  avg # of iterations =  1.0

     total cpu time spent up to now is     1385.9 secs

     total energy              =    -921.84468457 Ry
     Harris-Foulkes estimate   =    -921.84468457 Ry
     estimated scf accuracy    <          4.6E-12 Ry

     iteration # 30     ecut=    60.00 Ry     beta= 0.70
     Davidson diagonalization with overlap
     ethr =  1.00E-13,  avg # of iterations =  1.0

     total cpu time spent up to now is     1386.4 secs

     total energy              =    -921.84468457 Ry
     Harris-Foulkes estimate   =    -921.84468457 Ry
     estimated scf accuracy    <          5.0E-12 Ry

     iteration # 31     ecut=    60.00 Ry     beta= 0.70
     Davidson diagonalization with overlap
     ethr =  1.00E-13,  avg # of iterations =  1.0

     total cpu time spent up to now is     1386.9 secs

     total energy              =    -921.84468457 Ry
     Harris-Foulkes estimate   =    -921.84468457 Ry
     estimated scf accuracy    <          4.9E-12 Ry

     iteration # 32     ecut=    60.00 Ry     beta= 0.70
     Davidson diagonalization with overlap
     ethr =  1.00E-13,  avg # of iterations =  1.0

     total cpu time spent up to now is     1387.4 secs

     total energy              =    -921.84468457 Ry
     Harris-Foulkes estimate   =    -921.84468457 Ry
     estimated scf accuracy    <          6.1E-12 Ry

     iteration # 33     ecut=    60.00 Ry     beta= 0.70
     Davidson diagonalization with overlap
     ethr =  1.00E-13,  avg # of iterations =  1.0

     total cpu time spent up to now is     1387.9 secs

     total energy              =    -921.84468457 Ry
     Harris-Foulkes estimate   =    -921.84468457 Ry
     estimated scf accuracy    <          2.8E-12 Ry

     iteration # 34     ecut=    60.00 Ry     beta= 0.70
     Davidson diagonalization with overlap
     ethr =  1.00E-13,  avg # of iterations =  1.0

     total cpu time spent up to now is     1388.3 secs

     End of self-consistent calculation

          k = 0.0000 0.0000 0.0000 (  9333 PWs)   bands (ev):

   -59.5343 -59.5331 -59.5206 -59.5170 -33.5892 -33.5853 -33.5732 -33.5650
   -33.5179 -33.4564 -33.4267 -33.4083 -33.4053 -33.3685 -33.3651 -33.3621
   -13.2878 -13.1545 -12.1299 -12.0444 -11.9154 -11.8161 -11.3610 -11.3608
   -11.1921 -11.1765  -0.1337  -0.1223   0.0187   0.0354   0.3251   0.6442
     1.2884   1.5412   1.6471   1.8464   1.9488   2.0319   2.3443   2.3531
     2.4359   2.4799   2.5244   2.6012   2.6203   2.7817   2.8165   2.8275
     2.9559   3.3059   3.5030   3.5614   3.5907   3.6701   3.6833   3.9125

          k = 0.0000 0.2689 0.0000 (  9296 PWs)   bands (ev):

   -59.5335 -59.5315 -59.5201 -59.5181 -33.5911 -33.5872 -33.5771 -33.5689
   -33.5174 -33.4558 -33.4266 -33.4080 -33.4051 -33.3685 -33.3650 -33.3621
   -13.2108 -13.0899 -12.0740 -12.0227 -11.9002 -11.7931 -11.3800 -11.3429
   -11.1602 -11.1210  -0.1843  -0.1737  -0.0349  -0.0150   0.1281   0.3142
     0.5888   0.7822   0.8916   1.0528   1.6546   1.6570   1.7565   2.3189
     2.3365   2.4544   2.6482   2.7011   2.9038   3.0853   3.1828   3.3820
     3.4967   3.5601   3.5715   3.6055   3.6239   3.9251   4.0579   4.1636

          k = 0.3385 0.0000 0.0000 (  9330 PWs)   bands (ev):

   -59.5286 -59.5265 -59.5226 -59.5211 -33.5811 -33.5782 -33.5704 -33.5649
   -33.5176 -33.4929 -33.4720 -33.4684 -33.4072 -33.4040 -33.3839 -33.3681
   -12.6817 -12.5339 -11.9977 -11.8891 -11.8583 -11.7699 -11.2948 -11.2890
   -11.2445 -11.2093  -0.6536  -0.5696   0.1500   0.2924   0.4254   0.6878
     0.7775   1.1444   1.1625   1.5462   1.5785   1.7029   2.1267   2.1902
     2.2292   2.3891   2.4426   2.4478   2.5655   2.6073   2.7842   2.7851
     2.9029   3.0438   3.3898   3.5745   3.6259   3.7564   3.9809   4.0957

          k = 0.3385 0.2689 0.0000 (  9322 PWs)   bands (ev):

   -59.5294 -59.5263 -59.5226 -59.5198 -33.5834 -33.5804 -33.5737 -33.5681
   -33.5171 -33.4925 -33.4715 -33.4680 -33.4072 -33.4040 -33.3840 -33.3682
   -12.6155 -12.4860 -11.9640 -11.8860 -11.8271 -11.7491 -11.2885 -11.2540
   -11.1800 -11.1478  -0.6627  -0.5784   0.0771   0.1981   0.2747   0.4561
     0.6053   0.6857   0.7772   0.9974   1.1053   1.2531   1.6855   1.7794
     1.8379   1.9028   2.0595   2.1618   2.3355   2.7250   3.0346   3.2652
     3.4402   3.5023   3.8000   3.9700   4.0412   4.1791   4.2186   4.2763

     highest occupied level (ev):     4.2763

!    total energy              =    -921.84468457 Ry
     Harris-Foulkes estimate   =    -921.84468457 Ry
     estimated scf accuracy    <          7.9E-14 Ry

     The total energy is the sum of the following terms:

     one-electron contribution =    -572.91701635 Ry
     hartree contribution      =     327.56089236 Ry
     xc contribution           =    -174.23919826 Ry
     ewald contribution        =    -502.24936233 Ry

     convergence has been achieved in  34 iterations

     Forces acting on atoms (cartesian axes, Ry/au):

     atom    1 type  1   force =     0.00000000   -0.00425000    0.00132153
     atom    2 type  1   force =     0.00000000    0.00425000   -0.00132153
     atom    3 type  1   force =     0.00000000    0.00425000    0.00132153
     atom    4 type  1   force =    -0.00000000   -0.00425000   -0.00132153
     atom    5 type  2   force =    -0.00000000    0.00028749    0.00091459
     atom    6 type  2   force =     0.00000000   -0.00028749   -0.00091459
     atom    7 type  2   force =     0.00000000   -0.00028749    0.00091459
     atom    8 type  2   force =     0.00000000    0.00028749   -0.00091459
     atom    9 type  2   force =     0.00000000    0.00379584   -0.00020886
     atom   10 type  2   force =     0.00000000   -0.00379584    0.00020886
     atom   11 type  2   force =    -0.00000000   -0.00379584   -0.00020886
     atom   12 type  2   force =     0.00000000   -0.00044573   -0.00000000
     atom   13 type  2   force =     0.00000000    0.00044573    0.00000000
     atom   14 type  2   force =    -0.00000000    0.00379584    0.00020886

     Total force =     0.011879     Total SCF correction =     0.000001


     Computing stress (Cartesian axis) and pressure

          total   stress  (Ry/bohr**3)                   (kbar)     P=  -73.24
  -0.00036182   0.00000000   0.00000000        -53.22      0.00      0.00
   0.00000000  -0.00073124   0.00000000          0.00   -107.57      0.00
   0.00000000   0.00000000  -0.00040063          0.00      0.00    -58.94


     Writing output data file v2o5.save/

     init_run     :      2.07s CPU      2.19s WALL (       2 calls)
     electrons    :   1263.64s CPU   1296.22s WALL (      29 calls)
     update_pot   :     25.74s CPU     25.81s WALL (      27 calls)
     forces       :     23.20s CPU     23.42s WALL (      29 calls)
     stress       :     40.40s CPU     40.62s WALL (      29 calls)

     Called by init_run:
     wfcinit      :      0.85s CPU      0.92s WALL (       2 calls)
     potinit      :      0.38s CPU      0.39s WALL (       2 calls)
     hinit0       :      0.78s CPU      0.80s WALL (       2 calls)

     Called by electrons:
     c_bands      :   1191.10s CPU   1220.66s WALL (     968 calls)
     sum_band     :     59.99s CPU     61.86s WALL (     968 calls)
     v_of_rho     :      9.01s CPU      9.63s WALL (     990 calls)
     mix_rho      :      3.22s CPU      3.44s WALL (     968 calls)

     Called by c_bands:
     init_us_2    :      8.40s CPU      9.20s WALL (    7984 calls)
     cegterg      :   1152.38s CPU   1179.70s WALL (    3872 calls)

     Called by sum_band:

     Called by *egterg:
     h_psi        :    570.17s CPU    584.75s WALL (   15885 calls)
     g_psi        :      1.79s CPU      1.80s WALL (   12005 calls)
     cdiaghg      :    201.28s CPU    206.51s WALL (   15741 calls)

     Called by h_psi:
     h_psi:pot    :    566.38s CPU    579.35s WALL (   15885 calls)
     h_psi:calbec :    184.20s CPU    187.51s WALL (   15885 calls)
     vloc_psi     :    270.63s CPU    279.85s WALL (   15885 calls)
     add_vuspsi   :    111.43s CPU    111.91s WALL (   15885 calls)

     General routines
     calbec       :    195.91s CPU    199.36s WALL (   16465 calls)
     fft          :     11.04s CPU     11.64s WALL (   10630 calls)
     ffts         :      0.69s CPU      0.73s WALL (     968 calls)
     fftw         :    300.95s CPU    310.75s WALL ( 1355722 calls)

     Parallel routines
     fft_scatt_xy :     16.70s CPU     17.22s WALL ( 1367320 calls)
     fft_scatt_yz :    169.76s CPU    175.70s WALL ( 1367320 calls)

     PWSCF        :  22m35.93s CPU  23m 9.51s WALL


   This run was terminated on:  15: 7: 8  27Oct2024            

=------------------------------------------------------------------------------=
   JOB DONE.
=------------------------------------------------------------------------------=
