
     Program PWSCF v.6.4.1 starts on 18May2024 at 22: 9:30 

     This program is part of the open-source Quantum ESPRESSO suite
     for quantum simulation of materials; please cite
         "P. Giannozzi et al., J. Phys.:Condens. Matter 21 395502 (2009);
         "P. Giannozzi et al., J. Phys.:Condens. Matter 29 465901 (2017);
          URL http://www.quantum-espresso.org", 
     in publications or presentations arising from this work. More details at
     http://www.quantum-espresso.org/quote

     Parallel version (MPI), running on    32 processors

     MPI processes distributed on     1 nodes
     R & G space division:  proc/nbgrp/npool/nimage =      32
     Reading input from v2o5.vc.in
Warning: card O       -0.000000000   0.048914545   0.643203052 ignored

     Current dimensions of program PWSCF are:
     Max number of different atomic species (ntypx) = 10
     Max number of k-points (npk) =  40000
     Max angular momentum in pseudopotentials (lmaxx) =  3

     IMPORTANT: XC functional enforced from input :
     Exchange-correlation      = VDW-DF ( 1  4  4  0 1 0)
     Any further DFT definition will be discarded
     Please, verify this is what you really want


     Subspace diagonalization in iterative solution of the eigenvalue problem:
     one sub-group per band group will be used
     ELPA distributed-memory algorithm (size of sub-group:  4*  4 procs)


     Parallelization info
     --------------------
     sticks:   dense  smooth     PW     G-vecs:    dense   smooth      PW
     Min          35      35      9                 2585     2585     367
     Max          36      36     10                 2600     2600     380
     Sum        1143    1143    315                82963    82963   12023



     bravais-lattice index     =            8
     lattice parameter (alat)  =       6.7676  a.u.
     unit-cell volume          =    1320.1235 (a.u.)^3
     number of atoms/cell      =           14
     number of atomic types    =            2
     number of electrons       =       112.00
     number of Kohn-Sham states=           56
     kinetic-energy cutoff     =      60.0000  Ry
     charge density cutoff     =     240.0000  Ry
     convergence threshold     =      1.0E-10
     mixing beta               =       0.7000
     number of iterations used =            8  plain     mixing
     Exchange-correlation      = VDW-DF ( 1  4  4  0 1 0)
     nstep                     =          500


     celldm(1)=   6.767583  celldm(2)=   1.308375  celldm(3)=   3.255230
     celldm(4)=   0.000000  celldm(5)=   0.000000  celldm(6)=   0.000000

     crystal axes: (cart. coord. in units of alat)
               a(1) = (   1.000000   0.000000   0.000000 )  
               a(2) = (   0.000000   1.308375   0.000000 )  
               a(3) = (   0.000000   0.000000   3.255230 )  

     reciprocal axes: (cart. coord. in units 2 pi/alat)
               b(1) = (  1.000000  0.000000  0.000000 )  
               b(2) = (  0.000000  0.764307  0.000000 )  
               b(3) = (  0.000000  0.000000  0.307198 )  


     PseudoPot. # 1 for V  read from file:
     /home/mpicuntureo/pseudos/v.nc.upf
     MD5 check sum: 40fb93c06b4f9d8c28c5ccd071294a04
     Pseudo is Norm-conserving + core correction, Zval = 13.0
     Generated using ONCVPSP code by D. R. Hamann
     Using radial grid of 1536 points,  6 beta functions with: 
                l(1) =   0
                l(2) =   0
                l(3) =   1
                l(4) =   1
                l(5) =   2
                l(6) =   2

     PseudoPot. # 2 for O  read from file:
     /home/mpicuntureo/pseudos/o.nc.upf
     MD5 check sum: 3e3f909f7470e8921608ab6b1f57bbae
     Pseudo is Norm-conserving + core correction, Zval =  6.0
     Generated using ONCVPSP code by D. R. Hamann
     Using radial grid of  936 points,  5 beta functions with: 
                l(1) =   0
                l(2) =   0
                l(3) =   1
                l(4) =   1
                l(5) =   2

     vdW kernel table read from file vdW_kernel_table
     MD5 check sum: 8c4337f4b28e1601c069d7ef7b6561bc

     atomic species   valence    mass     pseudopotential
        V             13.00    50.94150     V ( 1.00)
        O              6.00    15.99940     O ( 1.00)

      8 Sym. Ops., with inversion, found ( 4 have fractional translation)



   Cartesian axes

     site n.     atom                  positions (alat units)
         1           V   tau(   1) = (   0.0000000   0.5083212   2.1085108  )
         2           V   tau(   2) = (   0.5000000   0.8000533   2.7743339  )
         3           V   tau(   3) = (   0.5000000   0.8000533   0.4808959  )
         4           V   tau(   4) = (   0.0000000   0.5083212   1.1467190  )
         5           O   tau(   5) = (   0.5000000   0.6458297   2.2175314  )
         6           O   tau(   6) = (   0.0000000   0.6625449   2.6653133  )
         7           O   tau(   7) = (   0.0000000   0.6625449   0.5899165  )
         8           O   tau(   8) = (   0.5000000   0.6458297   1.0376984  )
         9           O   tau(   9) = (   0.0000000   0.0639985   1.1614561  )
        10           O   tau(  10) = (   0.5000000   1.2443760   0.4661588  )
        11           O   tau(  11) = (   0.5000000   1.2443760   2.7890710  )
        12           O   tau(  12) = (   0.5000000   0.6549630   0.0000000  )
        13           O   tau(  13) = (   0.0000000   0.6534115   1.6276149  )
        14           O   tau(  14) = (   0.0000000   0.0639985   2.0937737  )

     number of k points=     4
                       cart. coord. in units 2pi/alat
        k(    1) = (   0.0000000   0.0000000   0.0000000), wk =   0.2222222
        k(    2) = (   0.0000000   0.2547691   0.0000000), wk =   0.4444444
        k(    3) = (   0.3333333   0.0000000   0.0000000), wk =   0.4444444
        k(    4) = (   0.3333333   0.2547691   0.0000000), wk =   0.8888889

     Dense  grid:    82963 G-vectors     FFT dimensions: (  36,  45, 120)

     Estimated max dynamical RAM per process >      11.86 MB

     Estimated total dynamical RAM >     379.60 MB

     Check: negative core charge=   -0.000038

     Initial potential from superposition of free atoms

     starting charge  111.99579, renormalised to  112.00000


     %%%%%%%%%%%%%%%%%%%%%%%%%%%%%%%%%%%%%%%%%%%%%%%%%%%%%%%%%%%%%%%%%%%%%%%%
     %                                                                      %
     % You are using vdW-DF, which was implemented by the Thonhauser group. %
     % Please cite the following two papers that made this development      %
     % possible and the two reviews that describe the various versions:     %
     %                                                                      %
     %   T. Thonhauser et al., PRL 115, 136402 (2015).                      %
     %   T. Thonhauser et al., PRB 76, 125112 (2007).                       %
     %   K. Berland et al., Rep. Prog. Phys. 78, 066501 (2015).             %
     %   D.C. Langreth et al., J. Phys.: Condens. Matter 21, 084203 (2009). %
     %                                                                      %
     %                                                                      %
     % If you are calculating the stress with vdW-DF, please also cite:     %
     %                                                                      %
     %   R. Sabatini et al., J. Phys.: Condens. Matter 24, 424209 (2012).   %
     %                                                                      %
     %%%%%%%%%%%%%%%%%%%%%%%%%%%%%%%%%%%%%%%%%%%%%%%%%%%%%%%%%%%%%%%%%%%%%%%%


     Starting wfcs are   80 randomized atomic wfcs

     total cpu time spent up to now is        1.0 secs

     Self-consistent Calculation

     iteration #  1     ecut=    60.00 Ry     beta= 0.70
     Davidson diagonalization with overlap
     ethr =  1.00E-02,  avg # of iterations =  2.0

     total cpu time spent up to now is        1.6 secs

     total energy              =    -920.53236338 Ry
     Harris-Foulkes estimate   =    -927.53305916 Ry
     estimated scf accuracy    <       8.76600781 Ry

     iteration #  2     ecut=    60.00 Ry     beta= 0.70
     Davidson diagonalization with overlap
     ethr =  7.83E-03,  avg # of iterations =  6.2

     total cpu time spent up to now is        2.9 secs

     total energy              =    -910.91107325 Ry
     Harris-Foulkes estimate   =    -945.01672625 Ry
     estimated scf accuracy    <     151.83604926 Ry

     iteration #  3     ecut=    60.00 Ry     beta= 0.70
     Davidson diagonalization with overlap
     ethr =  7.83E-03,  avg # of iterations =  5.5

     total cpu time spent up to now is        4.1 secs

     total energy              =    -925.56858804 Ry
     Harris-Foulkes estimate   =    -926.51673786 Ry
     estimated scf accuracy    <       3.02418031 Ry

     iteration #  4     ecut=    60.00 Ry     beta= 0.70
     Davidson diagonalization with overlap
     ethr =  2.70E-03,  avg # of iterations =  4.0

     total cpu time spent up to now is        4.8 secs

     total energy              =    -925.81693989 Ry
     Harris-Foulkes estimate   =    -925.96282085 Ry
     estimated scf accuracy    <       0.87609972 Ry

     iteration #  5     ecut=    60.00 Ry     beta= 0.70
     Davidson diagonalization with overlap
     ethr =  7.82E-04,  avg # of iterations =  3.8

     total cpu time spent up to now is        5.5 secs

     total energy              =    -925.74419014 Ry
     Harris-Foulkes estimate   =    -925.87971564 Ry
     estimated scf accuracy    <       0.47539355 Ry

     iteration #  6     ecut=    60.00 Ry     beta= 0.70
     Davidson diagonalization with overlap
     ethr =  4.24E-04,  avg # of iterations =  4.2

     total cpu time spent up to now is        6.4 secs

     total energy              =    -925.88730911 Ry
     Harris-Foulkes estimate   =    -925.89911701 Ry
     estimated scf accuracy    <       0.21909478 Ry

     iteration #  7     ecut=    60.00 Ry     beta= 0.70
     Davidson diagonalization with overlap
     ethr =  1.96E-04,  avg # of iterations =  2.0

     total cpu time spent up to now is        6.9 secs

     total energy              =    -925.85425013 Ry
     Harris-Foulkes estimate   =    -925.88984473 Ry
     estimated scf accuracy    <       0.19199894 Ry

     iteration #  8     ecut=    60.00 Ry     beta= 0.70
     Davidson diagonalization with overlap
     ethr =  1.71E-04,  avg # of iterations =  3.2

     total cpu time spent up to now is        7.5 secs

     total energy              =    -925.85918388 Ry
     Harris-Foulkes estimate   =    -925.86723158 Ry
     estimated scf accuracy    <       0.03877408 Ry

     iteration #  9     ecut=    60.00 Ry     beta= 0.70
     Davidson diagonalization with overlap
     ethr =  3.46E-05,  avg # of iterations =  4.8

     total cpu time spent up to now is        8.4 secs

     total energy              =    -925.87259457 Ry
     Harris-Foulkes estimate   =    -925.87472760 Ry
     estimated scf accuracy    <       0.01297178 Ry

     iteration # 10     ecut=    60.00 Ry     beta= 0.70
     Davidson diagonalization with overlap
     ethr =  1.16E-05,  avg # of iterations =  1.2

     total cpu time spent up to now is        8.9 secs

     total energy              =    -925.87112005 Ry
     Harris-Foulkes estimate   =    -925.87292396 Ry
     estimated scf accuracy    <       0.00763149 Ry

     iteration # 11     ecut=    60.00 Ry     beta= 0.70
     Davidson diagonalization with overlap
     ethr =  6.81E-06,  avg # of iterations =  4.0

     total cpu time spent up to now is        9.8 secs

     total energy              =    -925.87275970 Ry
     Harris-Foulkes estimate   =    -925.87332481 Ry
     estimated scf accuracy    <       0.00259212 Ry

     iteration # 12     ecut=    60.00 Ry     beta= 0.70
     Davidson diagonalization with overlap
     ethr =  2.31E-06,  avg # of iterations =  2.2

     total cpu time spent up to now is       10.3 secs

     total energy              =    -925.87274796 Ry
     Harris-Foulkes estimate   =    -925.87287007 Ry
     estimated scf accuracy    <       0.00091710 Ry

     iteration # 13     ecut=    60.00 Ry     beta= 0.70
     Davidson diagonalization with overlap
     ethr =  8.19E-07,  avg # of iterations =  4.0

     total cpu time spent up to now is       11.1 secs

     total energy              =    -925.87299614 Ry
     Harris-Foulkes estimate   =    -925.87300806 Ry
     estimated scf accuracy    <       0.00009686 Ry

     iteration # 14     ecut=    60.00 Ry     beta= 0.70
     Davidson diagonalization with overlap
     ethr =  8.65E-08,  avg # of iterations =  3.5

     total cpu time spent up to now is       11.7 secs

     total energy              =    -925.87299885 Ry
     Harris-Foulkes estimate   =    -925.87300301 Ry
     estimated scf accuracy    <       0.00008605 Ry

     iteration # 15     ecut=    60.00 Ry     beta= 0.70
     Davidson diagonalization with overlap
     ethr =  7.68E-08,  avg # of iterations =  1.0

     total cpu time spent up to now is       12.2 secs

     total energy              =    -925.87298865 Ry
     Harris-Foulkes estimate   =    -925.87299982 Ry
     estimated scf accuracy    <       0.00007017 Ry

     iteration # 16     ecut=    60.00 Ry     beta= 0.70
     Davidson diagonalization with overlap
     ethr =  6.27E-08,  avg # of iterations =  3.2

     total cpu time spent up to now is       12.8 secs

     total energy              =    -925.87299346 Ry
     Harris-Foulkes estimate   =    -925.87299327 Ry
     estimated scf accuracy    <       0.00001583 Ry

     iteration # 17     ecut=    60.00 Ry     beta= 0.70
     Davidson diagonalization with overlap
     ethr =  1.41E-08,  avg # of iterations =  5.0

     total cpu time spent up to now is       13.7 secs

     total energy              =    -925.87299821 Ry
     Harris-Foulkes estimate   =    -925.87299802 Ry
     estimated scf accuracy    <       0.00000289 Ry

     iteration # 18     ecut=    60.00 Ry     beta= 0.70
     Davidson diagonalization with overlap
     ethr =  2.58E-09,  avg # of iterations =  2.5

     total cpu time spent up to now is       14.3 secs

     total energy              =    -925.87299795 Ry
     Harris-Foulkes estimate   =    -925.87299841 Ry
     estimated scf accuracy    <       0.00000392 Ry

     iteration # 19     ecut=    60.00 Ry     beta= 0.70
     Davidson diagonalization with overlap
     ethr =  2.58E-09,  avg # of iterations =  2.0

     total cpu time spent up to now is       14.8 secs

     total energy              =    -925.87299798 Ry
     Harris-Foulkes estimate   =    -925.87299805 Ry
     estimated scf accuracy    <       0.00000310 Ry

     iteration # 20     ecut=    60.00 Ry     beta= 0.70
     Davidson diagonalization with overlap
     ethr =  2.58E-09,  avg # of iterations =  1.0

     total cpu time spent up to now is       15.2 secs

     total energy              =    -925.87299815 Ry
     Harris-Foulkes estimate   =    -925.87299804 Ry
     estimated scf accuracy    <       0.00000297 Ry

     iteration # 21     ecut=    60.00 Ry     beta= 0.70
     Davidson diagonalization with overlap
     ethr =  2.58E-09,  avg # of iterations =  3.2

     total cpu time spent up to now is       15.8 secs

     total energy              =    -925.87300762 Ry
     Harris-Foulkes estimate   =    -925.87299832 Ry
     estimated scf accuracy    <       0.00000412 Ry

     iteration # 22     ecut=    60.00 Ry     beta= 0.70
     Davidson diagonalization with overlap
     ethr =  2.58E-09,  avg # of iterations =  6.0

     total cpu time spent up to now is       17.1 secs

     total energy              =    -925.87296466 Ry
     Harris-Foulkes estimate   =    -925.87306030 Ry
     estimated scf accuracy    <       0.00050997 Ry

     iteration # 23     ecut=    60.00 Ry     beta= 0.70
     Davidson diagonalization with overlap
     ethr =  2.58E-09,  avg # of iterations =  5.5

     total cpu time spent up to now is       18.4 secs

     total energy              =    -925.87299573 Ry
     Harris-Foulkes estimate   =    -925.87299974 Ry
     estimated scf accuracy    <       0.00001862 Ry

     iteration # 24     ecut=    60.00 Ry     beta= 0.70
     Davidson diagonalization with overlap
     ethr =  2.58E-09,  avg # of iterations =  4.2

     total cpu time spent up to now is       19.4 secs

     total energy              =    -925.87299755 Ry
     Harris-Foulkes estimate   =    -925.87299759 Ry
     estimated scf accuracy    <       0.00000009 Ry

     iteration # 25     ecut=    60.00 Ry     beta= 0.70
     Davidson diagonalization with overlap
     ethr =  7.80E-11,  avg # of iterations =  5.0

     total cpu time spent up to now is       20.6 secs

     total energy              =    -925.87299753 Ry
     Harris-Foulkes estimate   =    -925.87299768 Ry
     estimated scf accuracy    <       0.00000079 Ry

     iteration # 26     ecut=    60.00 Ry     beta= 0.70
     Davidson diagonalization with overlap
     ethr =  7.80E-11,  avg # of iterations =  5.0

     total cpu time spent up to now is       21.7 secs

     total energy              =    -925.87299757 Ry
     Harris-Foulkes estimate   =    -925.87299759 Ry
     estimated scf accuracy    <       0.00000003 Ry

     iteration # 27     ecut=    60.00 Ry     beta= 0.70
     Davidson diagonalization with overlap
     ethr =  2.85E-11,  avg # of iterations =  4.0

     total cpu time spent up to now is       22.6 secs

     total energy              =    -925.87299758 Ry
     Harris-Foulkes estimate   =    -925.87299758 Ry
     estimated scf accuracy    <       0.00000002 Ry

     iteration # 28     ecut=    60.00 Ry     beta= 0.70
     Davidson diagonalization with overlap
     ethr =  1.96E-11,  avg # of iterations =  1.0

     total cpu time spent up to now is       23.1 secs

     total energy              =    -925.87299758 Ry
     Harris-Foulkes estimate   =    -925.87299758 Ry
     estimated scf accuracy    <       0.00000002 Ry

     iteration # 29     ecut=    60.00 Ry     beta= 0.70
     Davidson diagonalization with overlap
     ethr =  1.77E-11,  avg # of iterations =  4.0

     total cpu time spent up to now is       23.8 secs

     total energy              =    -925.87299758 Ry
     Harris-Foulkes estimate   =    -925.87299758 Ry
     estimated scf accuracy    <          7.8E-10 Ry

     iteration # 30     ecut=    60.00 Ry     beta= 0.70
     Davidson diagonalization with overlap
     ethr =  6.93E-13,  avg # of iterations =  5.0

     total cpu time spent up to now is       24.8 secs

     total energy              =    -925.87299758 Ry
     Harris-Foulkes estimate   =    -925.87299758 Ry
     estimated scf accuracy    <          1.9E-10 Ry

     iteration # 31     ecut=    60.00 Ry     beta= 0.70
     Davidson diagonalization with overlap
     ethr =  1.66E-13,  avg # of iterations =  4.2

     total cpu time spent up to now is       25.5 secs

     End of self-consistent calculation

          k = 0.0000 0.0000 0.0000 ( 10351 PWs)   bands (ev):

   -61.0882 -61.0838 -61.0792 -61.0778 -35.0776 -35.0754 -35.0680 -35.0634
   -34.9979 -34.9513 -34.9333 -34.9047 -34.9025 -34.8886 -34.8757 -34.8735
   -14.2631 -14.1503 -13.2785 -13.1360 -13.0679 -13.0615 -12.7092 -12.7032
   -12.5730 -12.5677  -1.0998  -1.0895  -1.0164  -0.9063  -0.8083  -0.4051
     0.2516   0.3438   0.5265   0.6047   0.7390   0.7823   0.9026   0.9484
     1.0074   1.0400   1.3014   1.3352   1.4374   1.4933   1.5964   1.6108
     1.8006   2.0337   2.1730   2.2006   2.3128   2.4948   2.4952   2.5856

          k = 0.0000 0.2548 0.0000 ( 10380 PWs)   bands (ev):

   -61.0879 -61.0862 -61.0788 -61.0774 -35.0783 -35.0760 -35.0695 -35.0649
   -34.9977 -34.9511 -34.9333 -34.9046 -34.9024 -34.8885 -34.8758 -34.8736
   -14.2167 -14.1118 -13.2352 -13.1189 -13.0668 -13.0465 -12.7248 -12.6997
   -12.5762 -12.5470  -1.1286  -1.1177  -1.0397  -0.9370  -0.9124  -0.5607
    -0.4247  -0.1867  -0.1469  -0.0110   0.4384   0.5617   0.6183   0.9873
     1.0924   1.3024   1.4586   1.4725   1.6092   1.6879   1.8101   1.9043
     2.1643   2.1721   2.1792   2.3499   2.4011   2.5968   2.6691   2.7547

          k = 0.3333 0.0000 0.0000 ( 10317 PWs)   bands (ev):

   -61.0833 -61.0824 -61.0785 -61.0770 -35.0721 -35.0701 -35.0663 -35.0629
   -34.9948 -34.9721 -34.9587 -34.9509 -34.9136 -34.9078 -34.8948 -34.8868
   -13.7390 -13.6125 -13.1890 -13.0325 -13.0280 -13.0199 -12.6516 -12.6515
   -12.6148 -12.5915  -1.5627  -1.4884  -0.8157  -0.7523  -0.7185  -0.3457
    -0.2541   0.1076   0.1271   0.4146   0.4291   0.4770   0.7997   0.9168
     0.9627   0.9997   1.0163   1.1053   1.2580   1.2653   1.4465   1.4884
     1.5482   1.9338   2.2319   2.3066   2.4290   2.5852   2.7705   2.7910

          k = 0.3333 0.2548 0.0000 ( 10361 PWs)   bands (ev):

   -61.0838 -61.0832 -61.0793 -61.0780 -35.0730 -35.0709 -35.0676 -35.0642
   -34.9946 -34.9720 -34.9586 -34.9508 -34.9136 -34.9078 -34.8949 -34.8869
   -13.6985 -13.5838 -13.1582 -13.0307 -13.0192 -13.0071 -12.6607 -12.6408
   -12.5865 -12.5639  -1.5608  -1.4866  -0.8530  -0.8076  -0.7920  -0.4465
    -0.3968  -0.2822  -0.1793  -0.0098   0.0573   0.2004   0.5529   0.5938
     0.6574   0.7420   0.8308   0.9285   1.0046   1.4493   1.6854   1.8560
     2.0723   2.1363   2.4524   2.6727   2.6845   2.8185   2.9015   2.9188

     highest occupied level (ev):     2.9188

!    total energy              =    -925.87299758 Ry
     Harris-Foulkes estimate   =    -925.87299758 Ry
     estimated scf accuracy    <          2.5E-11 Ry

     The total energy is the sum of the following terms:

     one-electron contribution =    -626.74962061 Ry
     hartree contribution      =     350.01569006 Ry
     xc contribution           =    -178.06235642 Ry
     ewald contribution        =    -471.07671061 Ry

     convergence has been achieved in  31 iterations

     Forces acting on atoms (cartesian axes, Ry/au):

     atom    1 type  1   force =    -0.00000000   -0.00370329    0.00085902
     atom    2 type  1   force =     0.00000000    0.00370329   -0.00085902
     atom    3 type  1   force =     0.00000000    0.00370329    0.00085902
     atom    4 type  1   force =     0.00000000   -0.00370329   -0.00085902
     atom    5 type  2   force =    -0.00000000   -0.00032935    0.00040596
     atom    6 type  2   force =     0.00000000    0.00032935   -0.00040596
     atom    7 type  2   force =     0.00000000    0.00032935    0.00040596
     atom    8 type  2   force =    -0.00000000   -0.00032935   -0.00040596
     atom    9 type  2   force =     0.00000000    0.00455952    0.00020168
     atom   10 type  2   force =     0.00000000   -0.00455952   -0.00020168
     atom   11 type  2   force =     0.00000000   -0.00455952    0.00020168
     atom   12 type  2   force =     0.00000000   -0.00067430   -0.00000000
     atom   13 type  2   force =     0.00000000    0.00067430    0.00000000
     atom   14 type  2   force =     0.00000000    0.00455952   -0.00020168

     Total force =     0.011964     Total SCF correction =     0.000014


     Computing stress (Cartesian axis) and pressure

          total   stress  (Ry/bohr**3)                   (kbar)     P= -120.68
  -0.00079587   0.00000000   0.00000000       -117.08      0.00      0.00
   0.00000000  -0.00086086   0.00000000          0.00   -126.64      0.00
   0.00000000   0.00000000  -0.00080437          0.00      0.00   -118.33


     BFGS Geometry Optimization

     number of scf cycles    =   1
     number of bfgs steps    =   0

     enthalpy new            =    -925.8729975810 Ry

     new trust radius        =       0.1563900165 bohr
     new conv_thr            =            1.0E-10 Ry

     new unit-cell volume =   1240.55301 a.u.^3 (   183.83099 Ang^3 )
     density =      3.28583 g/cm^3

CELL_PARAMETERS (alat=  6.76758343)
   0.980103247   0.000000000   0.000000000
   0.000000000   1.280216376   0.000000000
   0.000000000   0.000000000   3.189769228

ATOMIC_POSITIONS (crystal)
V       -0.000000000   0.388095315   0.647769236
V        0.500000008   0.611904701   0.852230789
V        0.500000008   0.611904701   0.147769228
V        0.000000000   0.388095315   0.352230781
O        0.500000008   0.493575045   0.681239590
O        0.000000000   0.506424972   0.818760436
O        0.000000000   0.506424972   0.181239581
O        0.500000008   0.493575045   0.318760427
O        0.000000000   0.049429481   0.356806118
O        0.500000008   0.950570536   0.143193890
O        0.500000008   0.950570536   0.856806126
O        0.500000008   0.500516788  -0.000000000
O        0.000000000   0.499483228   0.500000008
O        0.000000000   0.049429481   0.643193899



     Writing output data file v2o5.save/
     NEW-OLD atomic charge density approx. for the potential

     Check: negative core charge=   -0.000026
     extrapolated charge  104.81646, renormalised to  112.00000

     total cpu time spent up to now is       27.1 secs

     Self-consistent Calculation

     iteration #  1     ecut=    60.00 Ry     beta= 0.70
     Davidson diagonalization with overlap
     ethr =  1.00E-06,  avg # of iterations = 14.5

     total cpu time spent up to now is       30.1 secs

     total energy              =    -869.92649409 Ry
     Harris-Foulkes estimate   =    -961.75600556 Ry
     estimated scf accuracy    <      59.94579922 Ry

     iteration #  2     ecut=    60.00 Ry     beta= 0.70
     Davidson diagonalization with overlap
     ethr =  1.00E-02,  avg # of iterations =  6.2

     total cpu time spent up to now is       31.6 secs

     total energy              =    -907.13525691 Ry
     Harris-Foulkes estimate   =   -1007.05626690 Ry
     estimated scf accuracy    <     276.33448451 Ry

     iteration #  3     ecut=    60.00 Ry     beta= 0.70
     Davidson diagonalization with overlap
     ethr =  1.00E-02,  avg # of iterations =  7.0

     total cpu time spent up to now is       33.0 secs

     total energy              =    -932.22611445 Ry
     Harris-Foulkes estimate   =    -942.96716488 Ry
     estimated scf accuracy    <      46.36989721 Ry

     iteration #  4     ecut=    60.00 Ry     beta= 0.70
     Davidson diagonalization with overlap
     ethr =  1.00E-02,  avg # of iterations =  2.5

     total cpu time spent up to now is       33.6 secs

     total energy              =    -928.67396108 Ry
     Harris-Foulkes estimate   =    -933.64812959 Ry
     estimated scf accuracy    <      25.54171175 Ry

     iteration #  5     ecut=    60.00 Ry     beta= 0.70
     Davidson diagonalization with overlap
     ethr =  1.00E-02,  avg # of iterations =  1.0

     total cpu time spent up to now is       34.1 secs

     total energy              =    -926.45720480 Ry
     Harris-Foulkes estimate   =    -929.11293925 Ry
     estimated scf accuracy    <      15.23140204 Ry

     iteration #  6     ecut=    60.00 Ry     beta= 0.70
     Davidson diagonalization with overlap
     ethr =  1.00E-02,  avg # of iterations =  1.0

     total cpu time spent up to now is       34.5 secs

     total energy              =    -925.09477309 Ry
     Harris-Foulkes estimate   =    -926.78090702 Ry
     estimated scf accuracy    <       9.94976645 Ry

     iteration #  7     ecut=    60.00 Ry     beta= 0.70
     Davidson diagonalization with overlap
     ethr =  8.88E-03,  avg # of iterations =  3.0

     total cpu time spent up to now is       35.1 secs

     total energy              =    -925.50878473 Ry
     Harris-Foulkes estimate   =    -925.68468454 Ry
     estimated scf accuracy    <       4.95254827 Ry

     iteration #  8     ecut=    60.00 Ry     beta= 0.70
     Davidson diagonalization with overlap
     ethr =  4.42E-03,  avg # of iterations =  3.8

     total cpu time spent up to now is       35.8 secs

     total energy              =    -926.41581986 Ry
     Harris-Foulkes estimate   =    -926.03621815 Ry
     estimated scf accuracy    <       2.28121393 Ry

     iteration #  9     ecut=    60.00 Ry     beta= 0.70
     Davidson diagonalization with overlap
     ethr =  2.04E-03,  avg # of iterations =  2.5

     total cpu time spent up to now is       36.3 secs

     total energy              =    -926.51002058 Ry
     Harris-Foulkes estimate   =    -926.49839118 Ry
     estimated scf accuracy    <       3.08659680 Ry

     iteration # 10     ecut=    60.00 Ry     beta= 0.70
     Davidson diagonalization with overlap
     ethr =  2.04E-03,  avg # of iterations =  1.0

     negative rho (up, down):  1.110E-01 0.000E+00

     total cpu time spent up to now is       36.8 secs

     total energy              =    -924.65972754 Ry
     Harris-Foulkes estimate   =    -926.53402454 Ry
     estimated scf accuracy    <       3.12394863 Ry

     iteration # 11     ecut=    60.00 Ry     beta= 0.70
     Davidson diagonalization with overlap
     ethr =  2.04E-03,  avg # of iterations =  5.2

     total cpu time spent up to now is       38.0 secs

     total energy              =    -917.76374321 Ry
     Harris-Foulkes estimate   =    -928.15538924 Ry
     estimated scf accuracy    <      27.66514327 Ry

     iteration # 12     ecut=    60.00 Ry     beta= 0.70
     Davidson diagonalization with overlap
     ethr =  2.04E-03,  avg # of iterations =  4.8

     total cpu time spent up to now is       39.1 secs

     total energy              =    -927.37979392 Ry
     Harris-Foulkes estimate   =    -928.47530063 Ry
     estimated scf accuracy    <      10.54160072 Ry

     iteration # 13     ecut=    60.00 Ry     beta= 0.70
     Davidson diagonalization with overlap
     ethr =  2.04E-03,  avg # of iterations =  1.0

     total cpu time spent up to now is       39.6 secs

     total energy              =    -926.48045316 Ry
     Harris-Foulkes estimate   =    -927.41643915 Ry
     estimated scf accuracy    <       8.29845372 Ry

     iteration # 14     ecut=    60.00 Ry     beta= 0.70
     Davidson diagonalization with overlap
     ethr =  2.04E-03,  avg # of iterations =  3.0

     total cpu time spent up to now is       40.1 secs

     total energy              =    -927.39784207 Ry
     Harris-Foulkes estimate   =    -926.61447475 Ry
     estimated scf accuracy    <       4.87967379 Ry

     iteration # 15     ecut=    60.00 Ry     beta= 0.70
     Davidson diagonalization with overlap
     ethr =  2.04E-03,  avg # of iterations =  1.0

     total cpu time spent up to now is       40.6 secs

     total energy              =    -927.53433753 Ry
     Harris-Foulkes estimate   =    -927.44951742 Ry
     estimated scf accuracy    <       6.46333113 Ry

     iteration # 16     ecut=    60.00 Ry     beta= 0.70
     Davidson diagonalization with overlap
     ethr =  2.04E-03,  avg # of iterations =  1.0

     total cpu time spent up to now is       41.1 secs

     total energy              =    -924.03997413 Ry
     Harris-Foulkes estimate   =    -927.56165277 Ry
     estimated scf accuracy    <       6.82221584 Ry

     iteration # 17     ecut=    60.00 Ry     beta= 0.70
     Davidson diagonalization with overlap
     ethr =  2.04E-03,  avg # of iterations =  5.0

     total cpu time spent up to now is       42.3 secs

     total energy              =    -925.22312116 Ry
     Harris-Foulkes estimate   =    -926.58240963 Ry
     estimated scf accuracy    <       6.64762175 Ry

     iteration # 18     ecut=    60.00 Ry     beta= 0.70
     Davidson diagonalization with overlap
     ethr =  2.04E-03,  avg # of iterations =  4.2

     total cpu time spent up to now is       43.2 secs

     total energy              =    -925.89285353 Ry
     Harris-Foulkes estimate   =    -925.89709081 Ry
     estimated scf accuracy    <       0.00644910 Ry

     iteration # 19     ecut=    60.00 Ry     beta= 0.70
     Davidson diagonalization with overlap
     ethr =  5.76E-06,  avg # of iterations =  5.0

     total cpu time spent up to now is       44.4 secs

     total energy              =    -925.89550150 Ry
     Harris-Foulkes estimate   =    -925.90400233 Ry
     estimated scf accuracy    <       0.04427934 Ry

     iteration # 20     ecut=    60.00 Ry     beta= 0.70
     Davidson diagonalization with overlap
     ethr =  5.76E-06,  avg # of iterations =  4.0

     total cpu time spent up to now is       45.4 secs

     total energy              =    -925.89863679 Ry
     Harris-Foulkes estimate   =    -925.89831856 Ry
     estimated scf accuracy    <       0.00227640 Ry

     iteration # 21     ecut=    60.00 Ry     beta= 0.70
     Davidson diagonalization with overlap
     ethr =  2.03E-06,  avg # of iterations =  2.0

     total cpu time spent up to now is       45.9 secs

     total energy              =    -925.89709920 Ry
     Harris-Foulkes estimate   =    -925.89872654 Ry
     estimated scf accuracy    <       0.00347941 Ry

     iteration # 22     ecut=    60.00 Ry     beta= 0.70
     Davidson diagonalization with overlap
     ethr =  2.03E-06,  avg # of iterations =  5.0

     total cpu time spent up to now is       47.1 secs

     total energy              =    -925.89734735 Ry
     Harris-Foulkes estimate   =    -925.89846877 Ry
     estimated scf accuracy    <       0.00316228 Ry

     iteration # 23     ecut=    60.00 Ry     beta= 0.70
     Davidson diagonalization with overlap
     ethr =  2.03E-06,  avg # of iterations =  4.0

     total cpu time spent up to now is       48.0 secs

     total energy              =    -925.89789674 Ry
     Harris-Foulkes estimate   =    -925.89815644 Ry
     estimated scf accuracy    <       0.00098832 Ry

     iteration # 24     ecut=    60.00 Ry     beta= 0.70
     Davidson diagonalization with overlap
     ethr =  8.82E-07,  avg # of iterations =  4.0

     total cpu time spent up to now is       48.7 secs

     total energy              =    -925.89801763 Ry
     Harris-Foulkes estimate   =    -925.89801813 Ry
     estimated scf accuracy    <       0.00000158 Ry

     iteration # 25     ecut=    60.00 Ry     beta= 0.70
     Davidson diagonalization with overlap
     ethr =  1.41E-09,  avg # of iterations =  8.8

     total cpu time spent up to now is       50.3 secs

     total energy              =    -925.89803423 Ry
     Harris-Foulkes estimate   =    -925.89804526 Ry
     estimated scf accuracy    <       0.00006228 Ry

     iteration # 26     ecut=    60.00 Ry     beta= 0.70
     Davidson diagonalization with overlap
     ethr =  1.41E-09,  avg # of iterations =  5.0

     total cpu time spent up to now is       51.5 secs

     total energy              =    -925.89803592 Ry
     Harris-Foulkes estimate   =    -925.89803741 Ry
     estimated scf accuracy    <       0.00000666 Ry

     iteration # 27     ecut=    60.00 Ry     beta= 0.70
     Davidson diagonalization with overlap
     ethr =  1.41E-09,  avg # of iterations =  4.0

     total cpu time spent up to now is       52.5 secs

     total energy              =    -925.89803658 Ry
     Harris-Foulkes estimate   =    -925.89803661 Ry
     estimated scf accuracy    <       0.00000011 Ry

     iteration # 28     ecut=    60.00 Ry     beta= 0.70
     Davidson diagonalization with overlap
     ethr =  9.81E-11,  avg # of iterations =  4.5

     total cpu time spent up to now is       53.2 secs

     total energy              =    -925.89803660 Ry
     Harris-Foulkes estimate   =    -925.89803660 Ry
     estimated scf accuracy    <       0.00000002 Ry

     iteration # 29     ecut=    60.00 Ry     beta= 0.70
     Davidson diagonalization with overlap
     ethr =  1.40E-11,  avg # of iterations =  4.0

     total cpu time spent up to now is       53.9 secs

     total energy              =    -925.89803660 Ry
     Harris-Foulkes estimate   =    -925.89803660 Ry
     estimated scf accuracy    <       0.00000001 Ry

     iteration # 30     ecut=    60.00 Ry     beta= 0.70
     Davidson diagonalization with overlap
     ethr =  1.05E-11,  avg # of iterations =  3.0

     total cpu time spent up to now is       54.5 secs

     total energy              =    -925.89803660 Ry
     Harris-Foulkes estimate   =    -925.89803660 Ry
     estimated scf accuracy    <          4.1E-09 Ry

     iteration # 31     ecut=    60.00 Ry     beta= 0.70
     Davidson diagonalization with overlap
     ethr =  3.62E-12,  avg # of iterations =  4.0

     total cpu time spent up to now is       55.4 secs

     total energy              =    -925.89803660 Ry
     Harris-Foulkes estimate   =    -925.89803660 Ry
     estimated scf accuracy    <          8.6E-10 Ry

     iteration # 32     ecut=    60.00 Ry     beta= 0.70
     Davidson diagonalization with overlap
     ethr =  7.68E-13,  avg # of iterations =  2.5

     total cpu time spent up to now is       55.9 secs

     total energy              =    -925.89803660 Ry
     Harris-Foulkes estimate   =    -925.89803660 Ry
     estimated scf accuracy    <          3.7E-10 Ry

     iteration # 33     ecut=    60.00 Ry     beta= 0.70
     Davidson diagonalization with overlap
     ethr =  3.33E-13,  avg # of iterations =  4.0

     total cpu time spent up to now is       56.8 secs

     total energy              =    -925.89803660 Ry
     Harris-Foulkes estimate   =    -925.89803660 Ry
     estimated scf accuracy    <          2.1E-10 Ry

     iteration # 34     ecut=    60.00 Ry     beta= 0.70
     Davidson diagonalization with overlap
     ethr =  1.89E-13,  avg # of iterations =  1.0

     total cpu time spent up to now is       57.3 secs

     total energy              =    -925.89803660 Ry
     Harris-Foulkes estimate   =    -925.89803660 Ry
     estimated scf accuracy    <          1.8E-10 Ry

     iteration # 35     ecut=    60.00 Ry     beta= 0.70
     Davidson diagonalization with overlap
     ethr =  1.61E-13,  avg # of iterations =  3.5

     total cpu time spent up to now is       57.9 secs

     End of self-consistent calculation

          k = 0.0000 0.0000 0.0000 ( 10351 PWs)   bands (ev):

   -60.2175 -60.2134 -60.2054 -60.2032 -34.3215 -34.3187 -34.3091 -34.3038
   -34.1602 -34.0995 -34.0756 -34.0392 -34.0363 -34.0167 -34.0017 -33.9988
   -13.8012 -13.6749 -12.6907 -12.5880 -12.5075 -12.4390 -12.0650 -12.0570
   -11.9093 -11.9030  -0.6410  -0.6266  -0.5685  -0.4977  -0.2852   0.0990
     0.7095   0.7792   0.9829   1.1116   1.2622   1.3089   1.5023   1.5389
     1.6419   1.6694   1.8152   1.8701   1.9884   2.0109   2.1594   2.2125
     2.3680   2.6648   2.8306   2.8590   2.9294   3.1003   3.1161   3.2370

          k = 0.0000 0.2604 0.0000 ( 10380 PWs)   bands (ev):

   -60.2173 -60.2150 -60.2051 -60.2030 -34.3224 -34.3196 -34.3113 -34.3060
   -34.1599 -34.0992 -34.0756 -34.0390 -34.0362 -34.0167 -34.0017 -33.9988
   -13.7475 -13.6303 -12.6422 -12.5697 -12.5040 -12.4210 -12.0786 -12.0485
   -11.9057 -11.8701  -0.6764  -0.6617  -0.6001  -0.5362  -0.4608  -0.1761
     0.0862   0.2920   0.3197   0.3914   0.9882   1.0502   1.1125   1.5473
     1.6174   1.8266   2.0132   2.1347   2.2334   2.2698   2.3952   2.5067
     2.8165   2.8349   2.8417   2.9729   3.0264   3.2334   3.3262   3.4021

          k = 0.3401 0.0000 0.0000 ( 10317 PWs)   bands (ev):

   -60.2118 -60.2100 -60.2055 -60.2032 -34.3146 -34.3118 -34.3075 -34.3033
   -34.1559 -34.1263 -34.1102 -34.0997 -34.0508 -34.0439 -34.0259 -34.0148
   -13.2138 -13.0699 -12.5934 -12.4407 -12.4222 -12.3862 -11.9975 -11.9948
   -11.9517 -11.9272  -1.1358  -1.0396  -0.3264  -0.3157  -0.1897   0.1634
     0.2241   0.5589   0.5918   0.8567   0.8912   0.9212   1.3110   1.4397
     1.4841   1.5923   1.6031   1.7487   1.7759   1.9286   2.0112   2.0817
     2.1163   2.5260   2.8266   2.9384   3.0172   3.1872   3.3988   3.4604

          k = 0.3401 0.2604 0.0000 ( 10361 PWs)   bands (ev):

   -60.2120 -60.2105 -60.2060 -60.2039 -34.3158 -34.3130 -34.3093 -34.3050
   -34.1557 -34.1262 -34.1100 -34.0996 -34.0508 -34.0439 -34.0260 -34.0148
   -13.1667 -13.0363 -12.5630 -12.4386 -12.4059 -12.3712 -12.0024 -11.9764
   -11.9159 -11.8874  -1.1329  -1.0377  -0.3967  -0.3770  -0.3123  -0.0623
     0.1010   0.1574   0.2734   0.4281   0.5246   0.7130   1.0947   1.1247
     1.1939   1.2731   1.3944   1.4691   1.5547   1.9859   2.2559   2.4477
     2.7069   2.7947   3.0658   3.2910   3.3353   3.4564   3.5585   3.5823

     highest occupied level (ev):     3.5823

!    total energy              =    -925.89803660 Ry
     Harris-Foulkes estimate   =    -925.89803660 Ry
     estimated scf accuracy    <          3.7E-11 Ry

     The total energy is the sum of the following terms:

     one-electron contribution =    -612.31629804 Ry
     hartree contribution      =     345.82579317 Ry
     xc contribution           =    -178.66468663 Ry
     ewald contribution        =    -480.74284510 Ry

     convergence has been achieved in  35 iterations

     Forces acting on atoms (cartesian axes, Ry/au):

     atom    1 type  1   force =     0.00000000    0.05304360    0.01238971
     atom    2 type  1   force =     0.00000000   -0.05304360   -0.01238971
     atom    3 type  1   force =     0.00000000   -0.05304360    0.01238971
     atom    4 type  1   force =     0.00000000    0.05304360   -0.01238971
     atom    5 type  2   force =     0.00000000    0.00876292   -0.00711456
     atom    6 type  2   force =     0.00000000   -0.00876292    0.00711456
     atom    7 type  2   force =     0.00000000   -0.00876292   -0.00711456
     atom    8 type  2   force =     0.00000000    0.00876292    0.00711456
     atom    9 type  2   force =     0.00000000   -0.08144093    0.00323949
     atom   10 type  2   force =     0.00000000    0.08144093   -0.00323949
     atom   11 type  2   force =     0.00000000    0.08144093    0.00323949
     atom   12 type  2   force =     0.00000000   -0.02171357    0.00000000
     atom   13 type  2   force =     0.00000000    0.02171357   -0.00000000
     atom   14 type  2   force =     0.00000000   -0.08144093   -0.00323949

     Total force =     0.199734     Total SCF correction =     0.000009


     Computing stress (Cartesian axis) and pressure

          total   stress  (Ry/bohr**3)                   (kbar)     P=   29.30
   0.00011105   0.00000000   0.00000000         16.34      0.00      0.00
   0.00000000   0.00035265   0.00000000          0.00     51.88      0.00
   0.00000000   0.00000000   0.00013380          0.00      0.00     19.68


     number of scf cycles    =   2
     number of bfgs steps    =   1

     enthalpy old            =    -925.8729975810 Ry
     enthalpy new            =    -925.8980365967 Ry

     CASE: enthalpy_new < enthalpy_old

     new trust radius        =       0.0599123840 bohr
     new conv_thr            =            8.1E-11 Ry

     new unit-cell volume =   1227.36959 a.u.^3 (   181.87741 Ang^3 )
     density =      3.32113 g/cm^3

CELL_PARAMETERS (alat=  6.76758343)
   0.975169790   0.000000000   0.000000000
   0.000000000   1.278994980   0.000000000
   0.000000000   0.000000000   3.174866185

ATOMIC_POSITIONS (crystal)
V       -0.000000000   0.392565962   0.648217225
V        0.500000008   0.607434054   0.851782801
V        0.500000008   0.607434054   0.148217216
V        0.000000000   0.392565962   0.351782792
O        0.500000008   0.494324877   0.680996765
O        0.000000000   0.505675139   0.819003261
O        0.000000000   0.505675139   0.180996756
O        0.500000008   0.494324877   0.319003253
O        0.000000000   0.042520486   0.356922884
O        0.500000008   0.957479531   0.143077124
O        0.500000008   0.957479531   0.856922893
O        0.500000008   0.498599307  -0.000000000
O        0.000000000   0.501400709   0.500000008
O        0.000000000   0.042520486   0.643077133



     Writing output data file v2o5.save/
     NEW-OLD atomic charge density approx. for the potential

     Check: negative core charge=   -0.000025
     extrapolated charge  110.79703, renormalised to  112.00000

     total cpu time spent up to now is       59.5 secs

     Self-consistent Calculation

     iteration #  1     ecut=    60.00 Ry     beta= 0.70
     Davidson diagonalization with overlap
     ethr =  1.00E-06,  avg # of iterations = 10.8

     total cpu time spent up to now is       61.8 secs

     total energy              =    -925.41360514 Ry
     Harris-Foulkes estimate   =    -931.27736406 Ry
     estimated scf accuracy    <       0.47300718 Ry

     iteration #  2     ecut=    60.00 Ry     beta= 0.70
     Davidson diagonalization with overlap
     ethr =  4.22E-04,  avg # of iterations =  4.2

     total cpu time spent up to now is       63.1 secs

     total energy              =    -925.56651121 Ry
     Harris-Foulkes estimate   =    -927.17602203 Ry
     estimated scf accuracy    <       6.27962737 Ry

     iteration #  3     ecut=    60.00 Ry     beta= 0.70
     Davidson diagonalization with overlap
     ethr =  4.22E-04,  avg # of iterations =  5.0

     total cpu time spent up to now is       64.3 secs

     total energy              =    -925.92183418 Ry
     Harris-Foulkes estimate   =    -925.99308503 Ry
     estimated scf accuracy    <       0.55791889 Ry

     iteration #  4     ecut=    60.00 Ry     beta= 0.70
     Davidson diagonalization with overlap
     ethr =  4.22E-04,  avg # of iterations =  1.0

     total cpu time spent up to now is       64.8 secs

     total energy              =    -925.84320394 Ry
     Harris-Foulkes estimate   =    -925.92666890 Ry
     estimated scf accuracy    <       0.40250157 Ry

     iteration #  5     ecut=    60.00 Ry     beta= 0.70
     Davidson diagonalization with overlap
     ethr =  3.59E-04,  avg # of iterations =  4.0

     total cpu time spent up to now is       65.6 secs

     total energy              =    -925.90203318 Ry
     Harris-Foulkes estimate   =    -925.90422568 Ry
     estimated scf accuracy    <       0.01521408 Ry

     iteration #  6     ecut=    60.00 Ry     beta= 0.70
     Davidson diagonalization with overlap
     ethr =  1.36E-05,  avg # of iterations =  4.8

     total cpu time spent up to now is       66.4 secs

     total energy              =    -925.90591663 Ry
     Harris-Foulkes estimate   =    -925.90503157 Ry
     estimated scf accuracy    <       0.00897789 Ry

     iteration #  7     ecut=    60.00 Ry     beta= 0.70
     Davidson diagonalization with overlap
     ethr =  8.02E-06,  avg # of iterations =  4.2

     total cpu time spent up to now is       67.1 secs

     total energy              =    -925.90660706 Ry
     Harris-Foulkes estimate   =    -925.90714260 Ry
     estimated scf accuracy    <       0.02224890 Ry

     iteration #  8     ecut=    60.00 Ry     beta= 0.70
     Davidson diagonalization with overlap
     ethr =  8.02E-06,  avg # of iterations =  1.0

     total cpu time spent up to now is       67.6 secs

     total energy              =    -925.90443343 Ry
     Harris-Foulkes estimate   =    -925.90669948 Ry
     estimated scf accuracy    <       0.02155631 Ry

     iteration #  9     ecut=    60.00 Ry     beta= 0.70
     Davidson diagonalization with overlap
     ethr =  8.02E-06,  avg # of iterations =  2.0

     total cpu time spent up to now is       68.1 secs

     total energy              =    -925.90367876 Ry
     Harris-Foulkes estimate   =    -925.90465481 Ry
     estimated scf accuracy    <       0.01415457 Ry

     iteration # 10     ecut=    60.00 Ry     beta= 0.70
     Davidson diagonalization with overlap
     ethr =  8.02E-06,  avg # of iterations =  1.0

     total cpu time spent up to now is       68.6 secs

     total energy              =    -925.90307253 Ry
     Harris-Foulkes estimate   =    -925.90384140 Ry
     estimated scf accuracy    <       0.01009358 Ry

     iteration # 11     ecut=    60.00 Ry     beta= 0.70
     Davidson diagonalization with overlap
     ethr =  8.02E-06,  avg # of iterations =  2.0

     total cpu time spent up to now is       69.1 secs

     total energy              =    -925.90307308 Ry
     Harris-Foulkes estimate   =    -925.90339137 Ry
     estimated scf accuracy    <       0.00554959 Ry

     iteration # 12     ecut=    60.00 Ry     beta= 0.70
     Davidson diagonalization with overlap
     ethr =  4.95E-06,  avg # of iterations =  4.2

     total cpu time spent up to now is       69.7 secs

     total energy              =    -925.90348587 Ry
     Harris-Foulkes estimate   =    -925.90364463 Ry
     estimated scf accuracy    <       0.00072739 Ry

     iteration # 13     ecut=    60.00 Ry     beta= 0.70
     Davidson diagonalization with overlap
     ethr =  6.49E-07,  avg # of iterations =  4.0

     total cpu time spent up to now is       70.7 secs

     total energy              =    -925.90382502 Ry
     Harris-Foulkes estimate   =    -925.90399194 Ry
     estimated scf accuracy    <       0.00079374 Ry

     iteration # 14     ecut=    60.00 Ry     beta= 0.70
     Davidson diagonalization with overlap
     ethr =  6.49E-07,  avg # of iterations =  3.2

     total cpu time spent up to now is       71.3 secs

     total energy              =    -925.90378464 Ry
     Harris-Foulkes estimate   =    -925.90386389 Ry
     estimated scf accuracy    <       0.00016258 Ry

     iteration # 15     ecut=    60.00 Ry     beta= 0.70
     Davidson diagonalization with overlap
     ethr =  1.45E-07,  avg # of iterations =  4.8

     total cpu time spent up to now is       72.4 secs

     total energy              =    -925.90400762 Ry
     Harris-Foulkes estimate   =    -925.90400993 Ry
     estimated scf accuracy    <       0.00099686 Ry

     iteration # 16     ecut=    60.00 Ry     beta= 0.70
     Davidson diagonalization with overlap
     ethr =  1.45E-07,  avg # of iterations =  1.0

     total cpu time spent up to now is       72.9 secs

     total energy              =    -925.90396133 Ry
     Harris-Foulkes estimate   =    -925.90400861 Ry
     estimated scf accuracy    <       0.00099419 Ry

     iteration # 17     ecut=    60.00 Ry     beta= 0.70
     Davidson diagonalization with overlap
     ethr =  1.45E-07,  avg # of iterations =  1.0

     total cpu time spent up to now is       73.4 secs

     total energy              =    -925.90390983 Ry
     Harris-Foulkes estimate   =    -925.90396472 Ry
     estimated scf accuracy    <       0.00081320 Ry

     iteration # 18     ecut=    60.00 Ry     beta= 0.70
     Davidson diagonalization with overlap
     ethr =  1.45E-07,  avg # of iterations =  3.5

     total cpu time spent up to now is       74.0 secs

     total energy              =    -925.90387689 Ry
     Harris-Foulkes estimate   =    -925.90392153 Ry
     estimated scf accuracy    <       0.00041341 Ry

     iteration # 19     ecut=    60.00 Ry     beta= 0.70
     Davidson diagonalization with overlap
     ethr =  1.45E-07,  avg # of iterations =  4.0

     total cpu time spent up to now is       74.6 secs

     total energy              =    -925.90389073 Ry
     Harris-Foulkes estimate   =    -925.90389583 Ry
     estimated scf accuracy    <       0.00010851 Ry

     iteration # 20     ecut=    60.00 Ry     beta= 0.70
     Davidson diagonalization with overlap
     ethr =  9.69E-08,  avg # of iterations =  2.5

     total cpu time spent up to now is       75.2 secs

     total energy              =    -925.90386442 Ry
     Harris-Foulkes estimate   =    -925.90389344 Ry
     estimated scf accuracy    <       0.00008485 Ry

     iteration # 21     ecut=    60.00 Ry     beta= 0.70
     Davidson diagonalization with overlap
     ethr =  7.58E-08,  avg # of iterations =  4.5

     total cpu time spent up to now is       76.1 secs

     total energy              =    -925.90388902 Ry
     Harris-Foulkes estimate   =    -925.90391295 Ry
     estimated scf accuracy    <       0.00013624 Ry

     iteration # 22     ecut=    60.00 Ry     beta= 0.70
     Davidson diagonalization with overlap
     ethr =  7.58E-08,  avg # of iterations =  3.5

     total cpu time spent up to now is       76.8 secs

     total energy              =    -925.90388905 Ry
     Harris-Foulkes estimate   =    -925.90389432 Ry
     estimated scf accuracy    <       0.00003473 Ry

     iteration # 23     ecut=    60.00 Ry     beta= 0.70
     Davidson diagonalization with overlap
     ethr =  3.10E-08,  avg # of iterations =  4.0

     total cpu time spent up to now is       77.5 secs

     total energy              =    -925.90389788 Ry
     Harris-Foulkes estimate   =    -925.90389742 Ry
     estimated scf accuracy    <       0.00000124 Ry

     iteration # 24     ecut=    60.00 Ry     beta= 0.70
     Davidson diagonalization with overlap
     ethr =  1.10E-09,  avg # of iterations =  5.0

     total cpu time spent up to now is       78.7 secs

     total energy              =    -925.90389666 Ry
     Harris-Foulkes estimate   =    -925.90389900 Ry
     estimated scf accuracy    <       0.00001360 Ry

     iteration # 25     ecut=    60.00 Ry     beta= 0.70
     Davidson diagonalization with overlap
     ethr =  1.10E-09,  avg # of iterations =  4.8

     total cpu time spent up to now is       79.7 secs

     total energy              =    -925.90389742 Ry
     Harris-Foulkes estimate   =    -925.90389754 Ry
     estimated scf accuracy    <       0.00000055 Ry

     iteration # 26     ecut=    60.00 Ry     beta= 0.70
     Davidson diagonalization with overlap
     ethr =  4.91E-10,  avg # of iterations =  3.5

     total cpu time spent up to now is       80.4 secs

     total energy              =    -925.90389743 Ry
     Harris-Foulkes estimate   =    -925.90389745 Ry
     estimated scf accuracy    <       0.00000011 Ry

     iteration # 27     ecut=    60.00 Ry     beta= 0.70
     Davidson diagonalization with overlap
     ethr =  9.71E-11,  avg # of iterations =  4.5

     total cpu time spent up to now is       81.3 secs

     total energy              =    -925.90389750 Ry
     Harris-Foulkes estimate   =    -925.90389748 Ry
     estimated scf accuracy    <       0.00000006 Ry

     iteration # 28     ecut=    60.00 Ry     beta= 0.70
     Davidson diagonalization with overlap
     ethr =  5.70E-11,  avg # of iterations =  4.0

     total cpu time spent up to now is       82.2 secs

     total energy              =    -925.90389746 Ry
     Harris-Foulkes estimate   =    -925.90389752 Ry
     estimated scf accuracy    <       0.00000037 Ry

     iteration # 29     ecut=    60.00 Ry     beta= 0.70
     Davidson diagonalization with overlap
     ethr =  5.70E-11,  avg # of iterations =  4.0

     total cpu time spent up to now is       83.1 secs

     total energy              =    -925.90389747 Ry
     Harris-Foulkes estimate   =    -925.90389748 Ry
     estimated scf accuracy    <       0.00000003 Ry

     iteration # 30     ecut=    60.00 Ry     beta= 0.70
     Davidson diagonalization with overlap
     ethr =  2.54E-11,  avg # of iterations =  1.8

     total cpu time spent up to now is       83.6 secs

     total energy              =    -925.90389747 Ry
     Harris-Foulkes estimate   =    -925.90389747 Ry
     estimated scf accuracy    <       0.00000002 Ry

     iteration # 31     ecut=    60.00 Ry     beta= 0.70
     Davidson diagonalization with overlap
     ethr =  1.59E-11,  avg # of iterations =  4.5

     total cpu time spent up to now is       84.3 secs

     total energy              =    -925.90389747 Ry
     Harris-Foulkes estimate   =    -925.90389747 Ry
     estimated scf accuracy    <          3.3E-10 Ry

     iteration # 32     ecut=    60.00 Ry     beta= 0.70
     Davidson diagonalization with overlap
     ethr =  2.97E-13,  avg # of iterations =  5.2

     total cpu time spent up to now is       85.6 secs

     total energy              =    -925.90389747 Ry
     Harris-Foulkes estimate   =    -925.90389747 Ry
     estimated scf accuracy    <          2.9E-09 Ry

     iteration # 33     ecut=    60.00 Ry     beta= 0.70
     Davidson diagonalization with overlap
     ethr =  2.97E-13,  avg # of iterations =  5.0

     total cpu time spent up to now is       86.9 secs

     total energy              =    -925.90389747 Ry
     Harris-Foulkes estimate   =    -925.90389747 Ry
     estimated scf accuracy    <          2.1E-10 Ry

     iteration # 34     ecut=    60.00 Ry     beta= 0.70
     Davidson diagonalization with overlap
     ethr =  1.91E-13,  avg # of iterations =  1.0

     total cpu time spent up to now is       87.4 secs

     total energy              =    -925.90389747 Ry
     Harris-Foulkes estimate   =    -925.90389747 Ry
     estimated scf accuracy    <          3.3E-10 Ry

     iteration # 35     ecut=    60.00 Ry     beta= 0.70
     Davidson diagonalization with overlap
     ethr =  1.91E-13,  avg # of iterations =  1.0

     total cpu time spent up to now is       87.9 secs

     total energy              =    -925.90389747 Ry
     Harris-Foulkes estimate   =    -925.90389747 Ry
     estimated scf accuracy    <          2.2E-10 Ry

     iteration # 36     ecut=    60.00 Ry     beta= 0.70
     Davidson diagonalization with overlap
     ethr =  1.91E-13,  avg # of iterations =  3.5

     total cpu time spent up to now is       88.5 secs

     End of self-consistent calculation

          k = 0.0000 0.0000 0.0000 ( 10351 PWs)   bands (ev):

   -60.1761 -60.1720 -60.1619 -60.1597 -34.1696 -34.1376 -34.1241 -34.1116
   -34.1099 -34.0786 -34.0491 -34.0400 -34.0370 -33.9974 -33.9969 -33.9939
   -13.8860 -13.7634 -12.7298 -12.6904 -12.5502 -12.4232 -11.8142 -11.7918
   -11.6368 -11.6251  -0.6982  -0.6826  -0.6629  -0.5836  -0.2763   0.1760
     0.7331   1.0630   1.0706   1.2325   1.4492   1.4974   1.8725   1.8774
     1.9002   1.9471   1.9968   2.0296   2.2727   2.4458   2.4577   2.4931
     2.5095   2.6809   2.8652   3.1114   3.1151   3.1530   3.2833   3.4124

          k = 0.0000 0.2606 0.0000 ( 10380 PWs)   bands (ev):

   -60.1758 -60.1735 -60.1617 -60.1594 -34.1698 -34.1385 -34.1261 -34.1121
   -34.1121 -34.0785 -34.0493 -34.0399 -34.0369 -33.9974 -33.9969 -33.9939
   -13.8420 -13.7270 -12.7029 -12.6775 -12.5355 -12.4101 -11.8167 -11.7743
   -11.6225 -11.5766  -0.7252  -0.7093  -0.6766  -0.6096  -0.4073  -0.0254
     0.1593   0.3986   0.5157   0.6655   1.2572   1.2726   1.3375   1.8543
     1.9200   1.9423   2.0175   2.1836   2.3573   2.6968   2.7667   2.8441
     2.8811   2.9594   3.0266   3.0825   3.0864   3.3862   3.4434   3.6201

          k = 0.3418 0.0000 0.0000 ( 10317 PWs)   bands (ev):

   -60.1696 -60.1677 -60.1625 -60.1601 -34.1636 -34.1384 -34.1282 -34.1145
   -34.1128 -34.1116 -34.0987 -34.0880 -34.0367 -34.0367 -34.0175 -33.9993
   -13.2685 -13.1320 -12.6092 -12.5178 -12.4506 -12.3718 -11.7384 -11.7206
   -11.6585 -11.6556  -1.2504  -1.1560  -0.4000  -0.3584  -0.1776   0.1276
     0.1819   0.5683   0.6528   0.9748   1.0732   1.2112   1.5109   1.6692
     1.7454   1.8961   1.9544   2.0329   2.1355   2.2092   2.2195   2.2435
     2.4598   2.6211   2.9708   3.1685   3.2222   3.3978   3.4420   3.4446

          k = 0.3418 0.2606 0.0000 ( 10361 PWs)   bands (ev):

   -60.1700 -60.1682 -60.1628 -60.1608 -34.1637 -34.1391 -34.1281 -34.1162
   -34.1140 -34.1125 -34.0992 -34.0882 -34.0367 -34.0367 -34.0175 -33.9993
   -13.2322 -13.1063 -12.5964 -12.5156 -12.4283 -12.3601 -11.7287 -11.6889
   -11.6315 -11.5909  -1.2499  -1.1558  -0.4401  -0.3959  -0.2605   0.0485
     0.0753   0.1624   0.3739   0.6257   0.7423   0.7558   1.1781   1.3721
     1.4073   1.4634   1.6742   1.6833   1.8782   2.2859   2.4390   2.7843
     2.8829   2.9657   3.2972   3.4531   3.4599   3.6089   3.6413   3.6803

     highest occupied level (ev):     3.6803

!    total energy              =    -925.90389747 Ry
     Harris-Foulkes estimate   =    -925.90389747 Ry
     estimated scf accuracy    <          3.0E-11 Ry

     The total energy is the sum of the following terms:

     one-electron contribution =    -602.69010822 Ry
     hartree contribution      =     341.36315970 Ry
     xc contribution           =    -178.53107271 Ry
     ewald contribution        =    -486.04587625 Ry

     convergence has been achieved in  36 iterations

     Forces acting on atoms (cartesian axes, Ry/au):

     atom    1 type  1   force =     0.00000000   -0.05258664   -0.00145700
     atom    2 type  1   force =     0.00000000    0.05258664    0.00145700
     atom    3 type  1   force =     0.00000000    0.05258664   -0.00145700
     atom    4 type  1   force =     0.00000000   -0.05258664    0.00145700
     atom    5 type  2   force =     0.00000000    0.01229190   -0.00691580
     atom    6 type  2   force =     0.00000000   -0.01229190    0.00691580
     atom    7 type  2   force =     0.00000000   -0.01229190   -0.00691580
     atom    8 type  2   force =     0.00000000    0.01229190    0.00691580
     atom    9 type  2   force =     0.00000000    0.01419752    0.00019810
     atom   10 type  2   force =     0.00000000   -0.01419752   -0.00019810
     atom   11 type  2   force =    -0.00000000   -0.01419752    0.00019810
     atom   12 type  2   force =     0.00000000   -0.02337002    0.00000000
     atom   13 type  2   force =     0.00000000    0.02337002    0.00000000
     atom   14 type  2   force =    -0.00000000    0.01419752   -0.00019810

     Total force =     0.117322     Total SCF correction =     0.000008


     Computing stress (Cartesian axis) and pressure

          total   stress  (Ry/bohr**3)                   (kbar)     P=    7.74
   0.00037817   0.00000000   0.00000000         55.63      0.00      0.00
   0.00000000  -0.00054710   0.00000000          0.00    -80.48      0.00
   0.00000000   0.00000000   0.00032686          0.00      0.00     48.08


     number of scf cycles    =   3
     number of bfgs steps    =   2

     enthalpy old            =    -925.8980365967 Ry
     enthalpy new            =    -925.9038974732 Ry

     CASE: enthalpy_new < enthalpy_old

     new trust radius        =       0.0497725400 bohr
     new conv_thr            =            5.3E-11 Ry

     new unit-cell volume =   1236.34818 a.u.^3 (   183.20790 Ang^3 )
     density =      3.29701 g/cm^3

CELL_PARAMETERS (alat=  6.76758343)
   0.982096904   0.000000000   0.000000000
   0.000000000   1.271092569   0.000000000
   0.000000000   0.000000000   3.195276284

ATOMIC_POSITIONS (crystal)
V        0.000000000   0.390356009   0.648327812
V        0.500000008   0.609644006   0.851672213
V        0.500000008   0.609644006   0.148327803
V        0.000000000   0.390356009   0.351672205
O        0.500000008   0.495495342   0.680705242
O        0.000000000   0.504504675   0.819294784
O        0.000000000   0.504504675   0.180705232
O        0.500000008   0.495495342   0.319294776
O        0.000000000   0.041043387   0.356968810
O        0.500000008   0.958956629   0.143031199
O        0.500000008   0.958956629   0.856968818
O        0.500000008   0.496219681  -0.000000000
O        0.000000000   0.503780334   0.500000008
O       -0.000000000   0.041043387   0.643031207



     Writing output data file v2o5.save/
     NEW-OLD atomic charge density approx. for the potential

     Check: negative core charge=   -0.000026
     extrapolated charge  112.81333, renormalised to  112.00000

     total cpu time spent up to now is       90.1 secs

     Self-consistent Calculation

     iteration #  1     ecut=    60.00 Ry     beta= 0.70
     Davidson diagonalization with overlap
     ethr =  1.00E-06,  avg # of iterations =  9.2

     total cpu time spent up to now is       92.3 secs

     total energy              =    -925.72692406 Ry
     Harris-Foulkes estimate   =    -922.35923171 Ry
     estimated scf accuracy    <       0.18324438 Ry

     iteration #  2     ecut=    60.00 Ry     beta= 0.70
     Davidson diagonalization with overlap
     ethr =  1.64E-04,  avg # of iterations =  8.0

     total cpu time spent up to now is       93.7 secs

     total energy              =    -925.26566619 Ry
     Harris-Foulkes estimate   =    -926.66717415 Ry
     estimated scf accuracy    <       9.35893417 Ry

     iteration #  3     ecut=    60.00 Ry     beta= 0.70
     Davidson diagonalization with overlap
     ethr =  1.64E-04,  avg # of iterations =  5.0

     total cpu time spent up to now is       95.0 secs

     total energy              =    -925.91559342 Ry
     Harris-Foulkes estimate   =    -925.92773303 Ry
     estimated scf accuracy    <       0.06535026 Ry

     iteration #  4     ecut=    60.00 Ry     beta= 0.70
     Davidson diagonalization with overlap
     ethr =  5.83E-05,  avg # of iterations =  2.5

     total cpu time spent up to now is       95.5 secs

     total energy              =    -925.91482454 Ry
     Harris-Foulkes estimate   =    -925.91821530 Ry
     estimated scf accuracy    <       0.03632785 Ry

     iteration #  5     ecut=    60.00 Ry     beta= 0.70
     Davidson diagonalization with overlap
     ethr =  3.24E-05,  avg # of iterations =  1.0

     total cpu time spent up to now is       96.0 secs

     total energy              =    -925.91260743 Ry
     Harris-Foulkes estimate   =    -925.91565126 Ry
     estimated scf accuracy    <       0.02749818 Ry

     iteration #  6     ecut=    60.00 Ry     beta= 0.70
     Davidson diagonalization with overlap
     ethr =  2.46E-05,  avg # of iterations =  2.0

     total cpu time spent up to now is       96.5 secs

     total energy              =    -925.91067613 Ry
     Harris-Foulkes estimate   =    -925.91329233 Ry
     estimated scf accuracy    <       0.01806556 Ry

     iteration #  7     ecut=    60.00 Ry     beta= 0.70
     Davidson diagonalization with overlap
     ethr =  1.61E-05,  avg # of iterations =  4.2

     total cpu time spent up to now is       97.3 secs

     total energy              =    -925.91401381 Ry
     Harris-Foulkes estimate   =    -925.91397964 Ry
     estimated scf accuracy    <       0.00088368 Ry

     iteration #  8     ecut=    60.00 Ry     beta= 0.70
     Davidson diagonalization with overlap
     ethr =  7.89E-07,  avg # of iterations =  5.0

     total cpu time spent up to now is       98.1 secs

     total energy              =    -925.91455087 Ry
     Harris-Foulkes estimate   =    -925.91447506 Ry
     estimated scf accuracy    <       0.00183114 Ry

     iteration #  9     ecut=    60.00 Ry     beta= 0.70
     Davidson diagonalization with overlap
     ethr =  7.89E-07,  avg # of iterations =  1.0

     total cpu time spent up to now is       98.6 secs

     total energy              =    -925.91470899 Ry
     Harris-Foulkes estimate   =    -925.91456969 Ry
     estimated scf accuracy    <       0.00214999 Ry

     iteration # 10     ecut=    60.00 Ry     beta= 0.70
     Davidson diagonalization with overlap
     ethr =  7.89E-07,  avg # of iterations =  4.0

     total cpu time spent up to now is       99.3 secs

     total energy              =    -925.91504011 Ry
     Harris-Foulkes estimate   =    -925.91484693 Ry
     estimated scf accuracy    <       0.00478248 Ry

     iteration # 11     ecut=    60.00 Ry     beta= 0.70
     Davidson diagonalization with overlap
     ethr =  7.89E-07,  avg # of iterations =  1.8

     total cpu time spent up to now is       99.8 secs

     total energy              =    -925.91530648 Ry
     Harris-Foulkes estimate   =    -925.91505826 Ry
     estimated scf accuracy    <       0.00544738 Ry

     iteration # 12     ecut=    60.00 Ry     beta= 0.70
     Davidson diagonalization with overlap
     ethr =  7.89E-07,  avg # of iterations =  4.2

     total cpu time spent up to now is      100.7 secs

     total energy              =    -925.91501671 Ry
     Harris-Foulkes estimate   =    -925.91562870 Ry
     estimated scf accuracy    <       0.01059137 Ry

     iteration # 13     ecut=    60.00 Ry     beta= 0.70
     Davidson diagonalization with overlap
     ethr =  7.89E-07,  avg # of iterations =  1.0

     total cpu time spent up to now is      101.2 secs

     total energy              =    -925.91492499 Ry
     Harris-Foulkes estimate   =    -925.91504284 Ry
     estimated scf accuracy    <       0.00883262 Ry

     iteration # 14     ecut=    60.00 Ry     beta= 0.70
     Davidson diagonalization with overlap
     ethr =  7.89E-07,  avg # of iterations =  1.0

     total cpu time spent up to now is      101.7 secs

     total energy              =    -925.91475500 Ry
     Harris-Foulkes estimate   =    -925.91493911 Ry
     estimated scf accuracy    <       0.00831448 Ry

     iteration # 15     ecut=    60.00 Ry     beta= 0.70
     Davidson diagonalization with overlap
     ethr =  7.89E-07,  avg # of iterations =  1.0

     total cpu time spent up to now is      102.2 secs

     total energy              =    -925.91419057 Ry
     Harris-Foulkes estimate   =    -925.91477289 Ry
     estimated scf accuracy    <       0.00751252 Ry

     iteration # 16     ecut=    60.00 Ry     beta= 0.70
     Davidson diagonalization with overlap
     ethr =  7.89E-07,  avg # of iterations =  4.0

     total cpu time spent up to now is      103.0 secs

     total energy              =    -925.91413833 Ry
     Harris-Foulkes estimate   =    -925.91444120 Ry
     estimated scf accuracy    <       0.00234561 Ry

     iteration # 17     ecut=    60.00 Ry     beta= 0.70
     Davidson diagonalization with overlap
     ethr =  7.89E-07,  avg # of iterations =  3.2

     total cpu time spent up to now is      103.5 secs

     total energy              =    -925.91428778 Ry
     Harris-Foulkes estimate   =    -925.91419852 Ry
     estimated scf accuracy    <       0.00134253 Ry

     iteration # 18     ecut=    60.00 Ry     beta= 0.70
     Davidson diagonalization with overlap
     ethr =  7.89E-07,  avg # of iterations =  3.8

     total cpu time spent up to now is      104.1 secs

     total energy              =    -925.91423191 Ry
     Harris-Foulkes estimate   =    -925.91433248 Ry
     estimated scf accuracy    <       0.00153777 Ry

     iteration # 19     ecut=    60.00 Ry     beta= 0.70
     Davidson diagonalization with overlap
     ethr =  7.89E-07,  avg # of iterations =  1.0

     total cpu time spent up to now is      104.6 secs

     total energy              =    -925.91429451 Ry
     Harris-Foulkes estimate   =    -925.91424175 Ry
     estimated scf accuracy    <       0.00122200 Ry

     iteration # 20     ecut=    60.00 Ry     beta= 0.70
     Davidson diagonalization with overlap
     ethr =  7.89E-07,  avg # of iterations =  1.0

     total cpu time spent up to now is      105.1 secs

     total energy              =    -925.91440281 Ry
     Harris-Foulkes estimate   =    -925.91429839 Ry
     estimated scf accuracy    <       0.00131389 Ry

     iteration # 21     ecut=    60.00 Ry     beta= 0.70
     Davidson diagonalization with overlap
     ethr =  7.89E-07,  avg # of iterations =  1.0

     total cpu time spent up to now is      105.5 secs

     total energy              =    -925.91441441 Ry
     Harris-Foulkes estimate   =    -925.91440961 Ry
     estimated scf accuracy    <       0.00167188 Ry

     iteration # 22     ecut=    60.00 Ry     beta= 0.70
     Davidson diagonalization with overlap
     ethr =  7.89E-07,  avg # of iterations =  1.0

     total cpu time spent up to now is      106.0 secs

     total energy              =    -925.91412386 Ry
     Harris-Foulkes estimate   =    -925.91441731 Ry
     estimated scf accuracy    <       0.00171534 Ry

     iteration # 23     ecut=    60.00 Ry     beta= 0.70
     Davidson diagonalization with overlap
     ethr =  7.89E-07,  avg # of iterations =  1.0

     total cpu time spent up to now is      106.5 secs

     total energy              =    -925.91379861 Ry
     Harris-Foulkes estimate   =    -925.91414723 Ry
     estimated scf accuracy    <       0.00093702 Ry

     iteration # 24     ecut=    60.00 Ry     beta= 0.70
     Davidson diagonalization with overlap
     ethr =  7.89E-07,  avg # of iterations =  4.0

     total cpu time spent up to now is      107.4 secs

     total energy              =    -925.91451781 Ry
     Harris-Foulkes estimate   =    -925.91430064 Ry
     estimated scf accuracy    <       0.00141831 Ry

     iteration # 25     ecut=    60.00 Ry     beta= 0.70
     Davidson diagonalization with overlap
     ethr =  7.89E-07,  avg # of iterations =  1.0

     total cpu time spent up to now is      107.9 secs

     total energy              =    -925.91423164 Ry
     Harris-Foulkes estimate   =    -925.91454348 Ry
     estimated scf accuracy    <       0.00228880 Ry

     iteration # 26     ecut=    60.00 Ry     beta= 0.70
     Davidson diagonalization with overlap
     ethr =  7.89E-07,  avg # of iterations =  1.0

     total cpu time spent up to now is      108.3 secs

     total energy              =    -925.91393074 Ry
     Harris-Foulkes estimate   =    -925.91425239 Ry
     estimated scf accuracy    <       0.00163894 Ry

     iteration # 27     ecut=    60.00 Ry     beta= 0.70
     Davidson diagonalization with overlap
     ethr =  7.89E-07,  avg # of iterations =  4.0

     total cpu time spent up to now is      109.2 secs

     total energy              =    -925.91413235 Ry
     Harris-Foulkes estimate   =    -925.91414750 Ry
     estimated scf accuracy    <       0.00008123 Ry

     iteration # 28     ecut=    60.00 Ry     beta= 0.70
     Davidson diagonalization with overlap
     ethr =  7.25E-08,  avg # of iterations =  3.0

     total cpu time spent up to now is      109.8 secs

     total energy              =    -925.91413576 Ry
     Harris-Foulkes estimate   =    -925.91413715 Ry
     estimated scf accuracy    <       0.00003152 Ry

     iteration # 29     ecut=    60.00 Ry     beta= 0.70
     Davidson diagonalization with overlap
     ethr =  2.81E-08,  avg # of iterations =  3.8

     total cpu time spent up to now is      110.4 secs

     total energy              =    -925.91413429 Ry
     Harris-Foulkes estimate   =    -925.91413786 Ry
     estimated scf accuracy    <       0.00002216 Ry

     iteration # 30     ecut=    60.00 Ry     beta= 0.70
     Davidson diagonalization with overlap
     ethr =  1.98E-08,  avg # of iterations =  3.8

     total cpu time spent up to now is      111.0 secs

     total energy              =    -925.91413703 Ry
     Harris-Foulkes estimate   =    -925.91413646 Ry
     estimated scf accuracy    <       0.00000641 Ry

     iteration # 31     ecut=    60.00 Ry     beta= 0.70
     Davidson diagonalization with overlap
     ethr =  5.72E-09,  avg # of iterations =  4.0

     total cpu time spent up to now is      111.7 secs

     total energy              =    -925.91413649 Ry
     Harris-Foulkes estimate   =    -925.91413746 Ry
     estimated scf accuracy    <       0.00000837 Ry

     iteration # 32     ecut=    60.00 Ry     beta= 0.70
     Davidson diagonalization with overlap
     ethr =  5.72E-09,  avg # of iterations =  2.8

     total cpu time spent up to now is      112.2 secs

     total energy              =    -925.91413599 Ry
     Harris-Foulkes estimate   =    -925.91413667 Ry
     estimated scf accuracy    <       0.00000506 Ry

     iteration # 33     ecut=    60.00 Ry     beta= 0.70
     Davidson diagonalization with overlap
     ethr =  4.51E-09,  avg # of iterations =  3.2

     total cpu time spent up to now is      112.8 secs

     total energy              =    -925.91413598 Ry
     Harris-Foulkes estimate   =    -925.91413624 Ry
     estimated scf accuracy    <       0.00000192 Ry

     iteration # 34     ecut=    60.00 Ry     beta= 0.70
     Davidson diagonalization with overlap
     ethr =  1.71E-09,  avg # of iterations =  4.0

     total cpu time spent up to now is      113.6 secs

     total energy              =    -925.91413652 Ry
     Harris-Foulkes estimate   =    -925.91413651 Ry
     estimated scf accuracy    <       0.00000012 Ry

     iteration # 35     ecut=    60.00 Ry     beta= 0.70
     Davidson diagonalization with overlap
     ethr =  1.04E-10,  avg # of iterations =  4.5

     total cpu time spent up to now is      114.4 secs

     total energy              =    -925.91413652 Ry
     Harris-Foulkes estimate   =    -925.91413654 Ry
     estimated scf accuracy    <       0.00000026 Ry

     iteration # 36     ecut=    60.00 Ry     beta= 0.70
     Davidson diagonalization with overlap
     ethr =  1.04E-10,  avg # of iterations =  1.0

     total cpu time spent up to now is      114.8 secs

     total energy              =    -925.91413648 Ry
     Harris-Foulkes estimate   =    -925.91413652 Ry
     estimated scf accuracy    <       0.00000021 Ry

     iteration # 37     ecut=    60.00 Ry     beta= 0.70
     Davidson diagonalization with overlap
     ethr =  1.04E-10,  avg # of iterations =  4.0

     total cpu time spent up to now is      115.6 secs

     total energy              =    -925.91413650 Ry
     Harris-Foulkes estimate   =    -925.91413650 Ry
     estimated scf accuracy    <       0.00000001 Ry

     iteration # 38     ecut=    60.00 Ry     beta= 0.70
     Davidson diagonalization with overlap
     ethr =  1.04E-11,  avg # of iterations =  5.0

     total cpu time spent up to now is      116.7 secs

     total energy              =    -925.91413650 Ry
     Harris-Foulkes estimate   =    -925.91413651 Ry
     estimated scf accuracy    <       0.00000008 Ry

     iteration # 39     ecut=    60.00 Ry     beta= 0.70
     Davidson diagonalization with overlap
     ethr =  1.04E-11,  avg # of iterations =  4.0

     total cpu time spent up to now is      117.7 secs

     total energy              =    -925.91413649 Ry
     Harris-Foulkes estimate   =    -925.91413650 Ry
     estimated scf accuracy    <       0.00000002 Ry

     iteration # 40     ecut=    60.00 Ry     beta= 0.70
     Davidson diagonalization with overlap
     ethr =  1.04E-11,  avg # of iterations =  5.0

     total cpu time spent up to now is      118.8 secs

     total energy              =    -925.91413650 Ry
     Harris-Foulkes estimate   =    -925.91413650 Ry
     estimated scf accuracy    <       0.00000003 Ry

     iteration # 41     ecut=    60.00 Ry     beta= 0.70
     Davidson diagonalization with overlap
     ethr =  1.04E-11,  avg # of iterations =  4.0

     total cpu time spent up to now is      119.7 secs

     total energy              =    -925.91413650 Ry
     Harris-Foulkes estimate   =    -925.91413650 Ry
     estimated scf accuracy    <          2.1E-10 Ry

     iteration # 42     ecut=    60.00 Ry     beta= 0.70
     Davidson diagonalization with overlap
     ethr =  1.86E-13,  avg # of iterations =  3.5

     total cpu time spent up to now is      120.3 secs

     total energy              =    -925.91413650 Ry
     Harris-Foulkes estimate   =    -925.91413650 Ry
     estimated scf accuracy    <          8.2E-11 Ry

     iteration # 43     ecut=    60.00 Ry     beta= 0.70
     Davidson diagonalization with overlap
     ethr =  1.00E-13,  avg # of iterations =  4.0

     total cpu time spent up to now is      121.2 secs

     total energy              =    -925.91413650 Ry
     Harris-Foulkes estimate   =    -925.91413650 Ry
     estimated scf accuracy    <          1.2E-10 Ry

     iteration # 44     ecut=    60.00 Ry     beta= 0.70
     Davidson diagonalization with overlap
     ethr =  1.00E-13,  avg # of iterations =  2.0

     total cpu time spent up to now is      121.7 secs

     End of self-consistent calculation

          k = 0.0000 0.0000 0.0000 ( 10351 PWs)   bands (ev):

   -60.2635 -60.2596 -60.2507 -60.2489 -34.2581 -34.2522 -34.2396 -34.2330
   -34.2020 -34.1493 -34.1217 -34.1086 -34.1060 -34.0691 -34.0689 -34.0665
   -13.8247 -13.7073 -12.7104 -12.6572 -12.5049 -12.3969 -11.9489 -11.9403
   -11.7878 -11.7836  -0.6381  -0.6260  -0.5559  -0.4932  -0.2223   0.1788
     0.7738   1.0045   1.0981   1.2029   1.3743   1.4233   1.7417   1.7447
     1.7524   1.8844   1.9754   2.0650   2.0867   2.2863   2.3312   2.3557
     2.3783   2.6877   2.8615   2.9543   2.9895   3.0921   3.1579   3.3031

          k = 0.0000 0.2622 0.0000 ( 10380 PWs)   bands (ev):

   -60.2632 -60.2611 -60.2505 -60.2485 -34.2592 -34.2533 -34.2419 -34.2353
   -34.2018 -34.1490 -34.1216 -34.1085 -34.1058 -34.0691 -34.0689 -34.0665
[...]
                l(2) =   0
                l(3) =   1
                l(4) =   1
                l(5) =   2
                l(6) =   2

     PseudoPot. # 2 for O  read from file:
     /home/mpicuntureo/pseudos/o.nc.upf
     MD5 check sum: 3e3f909f7470e8921608ab6b1f57bbae
     Pseudo is Norm-conserving + core correction, Zval =  6.0
     Generated using ONCVPSP code by D. R. Hamann
     Using radial grid of  936 points,  5 beta functions with: 
                l(1) =   0
                l(2) =   0
                l(3) =   1
                l(4) =   1
                l(5) =   2

     vdW kernel table read from file vdW_kernel_table
     MD5 check sum: 8c4337f4b28e1601c069d7ef7b6561bc

     atomic species   valence    mass     pseudopotential
        V             13.00    50.94150     V ( 1.00)
        O              6.00    15.99940     O ( 1.00)

      8 Sym. Ops., with inversion, found ( 4 have fractional translation)



   Cartesian axes

     site n.     atom                  positions (alat units)
         1           V   tau(   1) = (   0.0000000   0.4622685   2.0747552  )
         2           V   tau(   2) = (   0.4921409   0.7533713   2.7268038  )
         3           V   tau(   3) = (   0.4921409   0.7533713   0.4742355  )
         4           V   tau(   4) = (   0.0000000   0.4622685   1.1262842  )
         5           O   tau(   5) = (   0.4921409   0.6023835   2.1771835  )
         6           O   tau(   6) = (   0.0000000   0.6132564   2.6243756  )
         7           O   tau(   7) = (   0.0000000   0.6132564   0.5766638  )
         8           O   tau(   8) = (   0.4921409   0.6023835   1.0238559  )
         9           O   tau(   9) = (  -0.0000000   0.0177163   1.1404037  )
        10           O   tau(  10) = (   0.4921409   1.1979235   0.4601160  )
        11           O   tau(  11) = (   0.4921409   1.1979235   2.7409233  )
        12           O   tau(  12) = (   0.4921409   0.6086636   0.0000000  )
        13           O   tau(  13) = (  -0.0000000   0.6069763   1.6005197  )
        14           O   tau(  14) = (  -0.0000000   0.0177163   2.0606357  )

     number of k points=     4
                       cart. coord. in units 2pi/alat
        k(    1) = (   0.0000000   0.0000000   0.0000000), wk =   0.2222222
        k(    2) = (   0.0000000   0.2742040   0.0000000), wk =   0.4444444
        k(    3) = (   0.3386564   0.0000000   0.0000000), wk =   0.4444444
        k(    4) = (   0.3386564   0.2742040   0.0000000), wk =   0.8888889

     Dense  grid:    74583 G-vectors     FFT dimensions: (  36,  45, 108)

     Estimated max dynamical RAM per process >      11.33 MB

     Estimated total dynamical RAM >     362.58 MB

     Check: negative core charge=   -0.000040

     Initial potential from superposition of free atoms

     starting charge  111.99579, renormalised to  112.00000
     Starting wfcs are   80 randomized atomic wfcs

     total cpu time spent up to now is      495.5 secs

     Self-consistent Calculation

     iteration #  1     ecut=    60.00 Ry     beta= 0.70
     Davidson diagonalization with overlap
     ethr =  1.00E-06,  avg # of iterations =  7.8

     total cpu time spent up to now is      496.8 secs

     total energy              =    -920.84461445 Ry
     Harris-Foulkes estimate   =    -927.52559500 Ry
     estimated scf accuracy    <       8.39682061 Ry

     iteration #  2     ecut=    60.00 Ry     beta= 0.70
     Davidson diagonalization with overlap
     ethr =  7.50E-03,  avg # of iterations =  6.2

     total cpu time spent up to now is      497.6 secs

     total energy              =    -911.13211464 Ry
     Harris-Foulkes estimate   =    -943.35509240 Ry
     estimated scf accuracy    <     142.55360639 Ry

     iteration #  3     ecut=    60.00 Ry     beta= 0.70
     Davidson diagonalization with overlap
     ethr =  7.50E-03,  avg # of iterations =  5.8

     total cpu time spent up to now is      498.4 secs

     total energy              =    -925.61850358 Ry
     Harris-Foulkes estimate   =    -926.44864126 Ry
     estimated scf accuracy    <       2.75090161 Ry

     iteration #  4     ecut=    60.00 Ry     beta= 0.70
     Davidson diagonalization with overlap
     ethr =  2.46E-03,  avg # of iterations =  3.8

     total cpu time spent up to now is      498.9 secs

     total energy              =    -925.78824753 Ry
     Harris-Foulkes estimate   =    -925.93560901 Ry
     estimated scf accuracy    <       0.94895761 Ry

     iteration #  5     ecut=    60.00 Ry     beta= 0.70
     Davidson diagonalization with overlap
     ethr =  8.47E-04,  avg # of iterations =  3.8

     total cpu time spent up to now is      499.2 secs

     total energy              =    -925.68382645 Ry
     Harris-Foulkes estimate   =    -925.84534342 Ry
     estimated scf accuracy    <       0.54842017 Ry

     iteration #  6     ecut=    60.00 Ry     beta= 0.70
     Davidson diagonalization with overlap
     ethr =  4.90E-04,  avg # of iterations =  4.0

     total cpu time spent up to now is      499.8 secs

     total energy              =    -925.86359196 Ry
     Harris-Foulkes estimate   =    -925.88561203 Ry
     estimated scf accuracy    <       0.28733097 Ry

     iteration #  7     ecut=    60.00 Ry     beta= 0.70
     Davidson diagonalization with overlap
     ethr =  2.57E-04,  avg # of iterations =  1.0

     total cpu time spent up to now is      500.1 secs

     total energy              =    -925.81521122 Ry
     Harris-Foulkes estimate   =    -925.86587401 Ry
     estimated scf accuracy    <       0.22978504 Ry

     iteration #  8     ecut=    60.00 Ry     beta= 0.70
     Davidson diagonalization with overlap
     ethr =  2.05E-04,  avg # of iterations =  3.8

     total cpu time spent up to now is      500.6 secs

     total energy              =    -925.84917441 Ry
     Harris-Foulkes estimate   =    -925.85080613 Ry
     estimated scf accuracy    <       0.00742647 Ry

     iteration #  9     ecut=    60.00 Ry     beta= 0.70
     Davidson diagonalization with overlap
     ethr =  6.63E-06,  avg # of iterations =  4.5

     total cpu time spent up to now is      501.1 secs

     total energy              =    -925.85115602 Ry
     Harris-Foulkes estimate   =    -925.85165033 Ry
     estimated scf accuracy    <       0.00464587 Ry

     iteration # 10     ecut=    60.00 Ry     beta= 0.70
     Davidson diagonalization with overlap
     ethr =  4.15E-06,  avg # of iterations =  3.5

     total cpu time spent up to now is      501.5 secs

     total energy              =    -925.85078022 Ry
     Harris-Foulkes estimate   =    -925.85137275 Ry
     estimated scf accuracy    <       0.00246703 Ry

     iteration # 11     ecut=    60.00 Ry     beta= 0.70
     Davidson diagonalization with overlap
     ethr =  2.20E-06,  avg # of iterations =  4.0

     total cpu time spent up to now is      502.0 secs

     total energy              =    -925.85123081 Ry
     Harris-Foulkes estimate   =    -925.85127025 Ry
     estimated scf accuracy    <       0.00010760 Ry

     iteration # 12     ecut=    60.00 Ry     beta= 0.70
     Davidson diagonalization with overlap
     ethr =  9.61E-08,  avg # of iterations =  4.8

     total cpu time spent up to now is      502.6 secs

     total energy              =    -925.85127863 Ry
     Harris-Foulkes estimate   =    -925.85127926 Ry
     estimated scf accuracy    <       0.00000676 Ry

     iteration # 13     ecut=    60.00 Ry     beta= 0.70
     Davidson diagonalization with overlap
     ethr =  6.04E-09,  avg # of iterations =  4.0

     total cpu time spent up to now is      503.1 secs

     total energy              =    -925.85127839 Ry
     Harris-Foulkes estimate   =    -925.85128024 Ry
     estimated scf accuracy    <       0.00000873 Ry

     iteration # 14     ecut=    60.00 Ry     beta= 0.70
     Davidson diagonalization with overlap
     ethr =  6.04E-09,  avg # of iterations =  3.5

     total cpu time spent up to now is      503.5 secs

     total energy              =    -925.85127838 Ry
     Harris-Foulkes estimate   =    -925.85127888 Ry
     estimated scf accuracy    <       0.00000294 Ry

     iteration # 15     ecut=    60.00 Ry     beta= 0.70
     Davidson diagonalization with overlap
     ethr =  2.63E-09,  avg # of iterations =  4.0

     total cpu time spent up to now is      504.0 secs

     total energy              =    -925.85127897 Ry
     Harris-Foulkes estimate   =    -925.85127899 Ry
     estimated scf accuracy    <       0.00000009 Ry

     iteration # 16     ecut=    60.00 Ry     beta= 0.70
     Davidson diagonalization with overlap
     ethr =  8.09E-11,  avg # of iterations =  5.8

     total cpu time spent up to now is      504.6 secs

     total energy              =    -925.85127899 Ry
     Harris-Foulkes estimate   =    -925.85127900 Ry
     estimated scf accuracy    <       0.00000011 Ry

     iteration # 17     ecut=    60.00 Ry     beta= 0.70
     Davidson diagonalization with overlap
     ethr =  8.09E-11,  avg # of iterations =  1.5

     total cpu time spent up to now is      504.9 secs

     total energy              =    -925.85127898 Ry
     Harris-Foulkes estimate   =    -925.85127899 Ry
     estimated scf accuracy    <       0.00000006 Ry

     iteration # 18     ecut=    60.00 Ry     beta= 0.70
     Davidson diagonalization with overlap
     ethr =  5.20E-11,  avg # of iterations =  4.0

     total cpu time spent up to now is      505.4 secs

     total energy              =    -925.85127899 Ry
     Harris-Foulkes estimate   =    -925.85127899 Ry
     estimated scf accuracy    <          2.6E-09 Ry

     iteration # 19     ecut=    60.00 Ry     beta= 0.70
     Davidson diagonalization with overlap
     ethr =  2.37E-12,  avg # of iterations =  5.0

     total cpu time spent up to now is      506.0 secs

     total energy              =    -925.85127899 Ry
     Harris-Foulkes estimate   =    -925.85127899 Ry
     estimated scf accuracy    <          1.6E-09 Ry

     iteration # 20     ecut=    60.00 Ry     beta= 0.70
     Davidson diagonalization with overlap
     ethr =  1.44E-12,  avg # of iterations =  1.0

     total cpu time spent up to now is      506.3 secs

     total energy              =    -925.85127899 Ry
     Harris-Foulkes estimate   =    -925.85127899 Ry
     estimated scf accuracy    <          1.4E-09 Ry

     iteration # 21     ecut=    60.00 Ry     beta= 0.70
     Davidson diagonalization with overlap
     ethr =  1.26E-12,  avg # of iterations =  4.0

     total cpu time spent up to now is      506.8 secs

     total energy              =    -925.85127899 Ry
     Harris-Foulkes estimate   =    -925.85127899 Ry
     estimated scf accuracy    <          8.5E-11 Ry

     iteration # 22     ecut=    60.00 Ry     beta= 0.70
     Davidson diagonalization with overlap
     ethr =  1.00E-13,  avg # of iterations =  4.0

     total cpu time spent up to now is      507.2 secs

     total energy              =    -925.85127899 Ry
     Harris-Foulkes estimate   =    -925.85127899 Ry
     estimated scf accuracy    <          4.8E-11 Ry

     iteration # 23     ecut=    60.00 Ry     beta= 0.70
     Davidson diagonalization with overlap
     ethr =  1.00E-13,  avg # of iterations =  1.5

     total cpu time spent up to now is      507.5 secs

     total energy              =    -925.85127899 Ry
     Harris-Foulkes estimate   =    -925.85127899 Ry
     estimated scf accuracy    <          2.0E-11 Ry

     iteration # 24     ecut=    60.00 Ry     beta= 0.70
     Davidson diagonalization with overlap
     ethr =  1.00E-13,  avg # of iterations =  3.2

     total cpu time spent up to now is      507.8 secs

     total energy              =    -925.85127899 Ry
     Harris-Foulkes estimate   =    -925.85127899 Ry
     estimated scf accuracy    <          6.3E-12 Ry

     iteration # 25     ecut=    60.00 Ry     beta= 0.70
     Davidson diagonalization with overlap
     ethr =  1.00E-13,  avg # of iterations =  1.0

     total cpu time spent up to now is      508.1 secs

     total energy              =    -925.85127899 Ry
     Harris-Foulkes estimate   =    -925.85127899 Ry
     estimated scf accuracy    <          3.7E-12 Ry

     iteration # 26     ecut=    60.00 Ry     beta= 0.70
     Davidson diagonalization with overlap
     ethr =  1.00E-13,  avg # of iterations =  1.0

     total cpu time spent up to now is      508.4 secs

     total energy              =    -925.85127899 Ry
     Harris-Foulkes estimate   =    -925.85127899 Ry
     estimated scf accuracy    <          2.3E-12 Ry

     iteration # 27     ecut=    60.00 Ry     beta= 0.70
     Davidson diagonalization with overlap
     ethr =  1.00E-13,  avg # of iterations =  1.0

     total cpu time spent up to now is      508.7 secs

     total energy              =    -925.85127899 Ry
     Harris-Foulkes estimate   =    -925.85127899 Ry
     estimated scf accuracy    <          1.4E-12 Ry

     iteration # 28     ecut=    60.00 Ry     beta= 0.70
     Davidson diagonalization with overlap
     ethr =  1.00E-13,  avg # of iterations =  1.0

     total cpu time spent up to now is      509.0 secs

     End of self-consistent calculation

          k = 0.0000 0.0000 0.0000 (  9341 PWs)   bands (ev):

   -59.7989 -59.7970 -59.7868 -59.7851 -33.7945 -33.7906 -33.7808 -33.7741
   -33.7378 -33.6837 -33.6604 -33.6353 -33.6328 -33.6084 -33.5998 -33.5972
   -13.2615 -13.1321 -12.1961 -12.0788 -11.9616 -11.9009 -11.5059 -11.4941
   -11.3581 -11.3281  -0.0164  -0.0068   0.0352   0.1226   0.3180   0.7160
     1.3900   1.5447   1.6735   1.8721   1.9297   1.9802   2.2357   2.3335
     2.3917   2.4753   2.4927   2.5255   2.5656   2.7310   2.7527   2.7570
     2.9545   3.3054   3.4047   3.4270   3.4566   3.5705   3.6400   3.8080

          k = 0.0000 0.2742 0.0000 (  9312 PWs)   bands (ev):

   -59.7983 -59.7959 -59.7874 -59.7840 -33.7971 -33.7932 -33.7853 -33.7785
   -33.7372 -33.6832 -33.6603 -33.6351 -33.6325 -33.6084 -33.5997 -33.5971
   -13.1710 -13.0563 -12.1102 -12.0420 -11.9532 -11.8741 -11.5154 -11.4832
   -11.3163 -11.2847  -0.0797  -0.0690  -0.0246   0.0656   0.1502   0.3068
     0.5873   0.7757   0.7950   1.0185   1.4840   1.6019   1.6812   2.1887
     2.2880   2.4432   2.6168   2.6486   2.8356   3.0215   3.1395   3.2665
     3.4713   3.4790   3.4794   3.5839   3.5856   3.8798   3.9998   4.1237

          k = 0.3387 0.0000 0.0000 (  9338 PWs)   bands (ev):

   -59.7930 -59.7922 -59.7892 -59.7872 -33.7871 -33.7843 -33.7780 -33.7735
   -33.7365 -33.7134 -33.6956 -33.6908 -33.6419 -33.6376 -33.6205 -33.6080
   -12.6870 -12.5407 -12.0627 -11.9212 -11.9141 -11.8539 -11.4511 -11.4313
   -11.4207 -11.3628  -0.5301  -0.4479   0.2485   0.2803   0.4095   0.7198
     0.8109   1.2202   1.2519   1.6087   1.6487   1.7107   2.1104   2.1788
     2.2091   2.3451   2.4273   2.4409   2.4716   2.5600   2.7460   2.7616
     2.8040   3.0439   3.3073   3.4738   3.4885   3.6197   3.8907   4.0330

          k = 0.3387 0.2742 0.0000 (  9311 PWs)   bands (ev):

   -59.7934 -59.7920 -59.7878 -59.7860 -33.7899 -33.7872 -33.7819 -33.7773
   -33.7361 -33.7131 -33.6951 -33.6905 -33.6418 -33.6375 -33.6206 -33.6080
   -12.6088 -12.4845 -12.0096 -11.9165 -11.8849 -11.8292 -11.4294 -11.4002
   -11.3326 -11.3092  -0.5355  -0.4526   0.1573   0.1911   0.2745   0.4731
     0.6108   0.7073   0.7653   0.9593   1.0256   1.2910   1.6111   1.6670
     1.8365   1.8529   1.9762   2.0705   2.2558   2.7210   2.9638   3.1724
     3.3932   3.3943   3.7783   3.9319   4.0055   4.1358   4.1599   4.2172

     highest occupied level (ev):     4.2172

!    total energy              =    -925.85127899 Ry
     Harris-Foulkes estimate   =    -925.85127899 Ry
     estimated scf accuracy    <          2.1E-13 Ry

     The total energy is the sum of the following terms:

     one-electron contribution =    -562.58423186 Ry
     hartree contribution      =     323.07820993 Ry
     xc contribution           =    -178.41377043 Ry
     ewald contribution        =    -507.93148663 Ry

     convergence has been achieved in  28 iterations

     Forces acting on atoms (cartesian axes, Ry/au):

     atom    1 type  1   force =     0.00000000   -0.00318353    0.00150718
     atom    2 type  1   force =     0.00000000    0.00318353   -0.00150718
     atom    3 type  1   force =     0.00000000    0.00318353    0.00150718
     atom    4 type  1   force =     0.00000000   -0.00318353   -0.00150718
     atom    5 type  2   force =     0.00000000    0.00005998    0.00084566
     atom    6 type  2   force =     0.00000000   -0.00005998   -0.00084566
     atom    7 type  2   force =     0.00000000   -0.00005998    0.00084566
     atom    8 type  2   force =     0.00000000    0.00005998   -0.00084566
     atom    9 type  2   force =     0.00000000    0.00331323   -0.00035694
     atom   10 type  2   force =     0.00000000   -0.00331323    0.00035694
     atom   11 type  2   force =    -0.00000000   -0.00331323   -0.00035694
     atom   12 type  2   force =     0.00000000   -0.00060361    0.00000000
     atom   13 type  2   force =     0.00000000    0.00060361   -0.00000000
     atom   14 type  2   force =    -0.00000000    0.00331323    0.00035694

     Total force =     0.009882     Total SCF correction =     0.000001


     Computing stress (Cartesian axis) and pressure

          total   stress  (Ry/bohr**3)                   (kbar)     P=  -65.17
  -0.00032921   0.00000000   0.00000000        -48.43      0.00      0.00
   0.00000000  -0.00064043   0.00000000          0.00    -94.21      0.00
   0.00000000   0.00000000  -0.00035941          0.00      0.00    -52.87


     Writing output data file v2o5.save/

     init_run     :      0.89s CPU      0.92s WALL (       2 calls)
     electrons    :    466.99s CPU    474.93s WALL (      23 calls)
     update_pot   :      9.31s CPU      9.33s WALL (      21 calls)
     forces       :      8.50s CPU      8.65s WALL (      23 calls)
     stress       :     14.80s CPU     14.86s WALL (      23 calls)

     Called by init_run:
     wfcinit      :      0.38s CPU      0.40s WALL (       2 calls)
     potinit      :      0.18s CPU      0.19s WALL (       2 calls)
     hinit0       :      0.29s CPU      0.30s WALL (       2 calls)

     Called by electrons:
     c_bands      :    422.11s CPU    429.10s WALL (     670 calls)
     sum_band     :     22.54s CPU     23.05s WALL (     670 calls)
     v_of_rho     :     21.35s CPU     21.51s WALL (     687 calls)
     mix_rho      :      1.39s CPU      1.41s WALL (     670 calls)

     Called by c_bands:
     init_us_2    :      3.87s CPU      3.94s WALL (    5552 calls)
     cegterg      :    410.48s CPU    417.20s WALL (    2680 calls)

     Called by sum_band:

     Called by *egterg:
     h_psi        :    209.22s CPU    212.89s WALL (   11357 calls)
     g_psi        :      0.59s CPU      0.60s WALL (    8669 calls)
     cdiaghg      :     93.52s CPU     95.79s WALL (   11241 calls)

     Called by h_psi:
     h_psi:pot    :    208.39s CPU    212.05s WALL (   11357 calls)
     h_psi:calbec :     58.58s CPU     60.37s WALL (   11357 calls)
     vloc_psi     :    106.42s CPU    108.21s WALL (   11357 calls)
     add_vuspsi   :     43.33s CPU     43.43s WALL (   11357 calls)

     General routines
     calbec       :     62.21s CPU     64.17s WALL (   11817 calls)
     fft          :     11.62s CPU     11.70s WALL (   45111 calls)
     ffts         :      0.15s CPU      0.16s WALL (     670 calls)
     fftw         :    116.32s CPU    118.37s WALL (  953932 calls)

     Parallel routines
     fft_scatt_xy :      7.89s CPU      8.00s WALL (  999713 calls)
     fft_scatt_yz :     66.06s CPU     67.23s WALL (  999713 calls)

     PWSCF        :   8m21.26s CPU   8m29.73s WALL


   This run was terminated on:  22:18: 0  18May2024            

=------------------------------------------------------------------------------=
   JOB DONE.
=------------------------------------------------------------------------------=
