
     Program PWSCF v.6.4.1 starts on 27Oct2024 at 15:14:12 

     This program is part of the open-source Quantum ESPRESSO suite
     for quantum simulation of materials; please cite
         "P. Giannozzi et al., J. Phys.:Condens. Matter 21 395502 (2009);
         "P. Giannozzi et al., J. Phys.:Condens. Matter 29 465901 (2017);
          URL http://www.quantum-espresso.org", 
     in publications or presentations arising from this work. More details at
     http://www.quantum-espresso.org/quote

     Parallel version (MPI), running on    16 processors

     MPI processes distributed on     1 nodes
     R & G space division:  proc/nbgrp/npool/nimage =      16
     Reading input from v2o5.vc-rlx.in

     Current dimensions of program PWSCF are:
     Max number of different atomic species (ntypx) = 10
     Max number of k-points (npk) =  40000
     Max angular momentum in pseudopotentials (lmaxx) =  3

     Atomic positions and unit cell read from directory:
     ./v2o5.save/

     Message from routine readpp:
     file ./v2o5.save/v.nc.upf not found
     Message from routine readpp:
     file ./v2o5.save/o.nc.upf not found

     Subspace diagonalization in iterative solution of the eigenvalue problem:
     one sub-group per band group will be used
     ELPA distributed-memory algorithm (size of sub-group:  2*  2 procs)


     Parallelization info
     --------------------
     sticks:   dense  smooth     PW     G-vecs:    dense   smooth      PW
     Min         112     112     29                 9744     9744    1363
     Max         114     114     30                 9748     9748    1376
     Sum        1795    1795    477               155937   155937   21969



     bravais-lattice index     =            8
     lattice parameter (alat)  =       6.7498  a.u.
     unit-cell volume          =    1351.1084 (a.u.)^3
     number of atoms/cell      =           14
     number of atomic types    =            2
     number of electrons       =       112.00
     number of Kohn-Sham states=           56
     kinetic-energy cutoff     =      90.0000  Ry
     charge density cutoff     =     360.0000  Ry
     convergence threshold     =      1.0E-10
     mixing beta               =       0.7000
     number of iterations used =            8  plain     mixing
     Exchange-correlation      = PBE ( 1  4  3  4 0 0)
     nstep                     =          500


     celldm(1)=   6.749770  celldm(2)=   1.367023  celldm(3)=   3.213965
     celldm(4)=   0.000000  celldm(5)=   0.000000  celldm(6)=   0.000000

     crystal axes: (cart. coord. in units of alat)
               a(1) = (   1.000000   0.000000   0.000000 )  
               a(2) = (   0.000000   1.367024   0.000000 )  
               a(3) = (   0.000000   0.000000   3.213949 )  

     reciprocal axes: (cart. coord. in units 2 pi/alat)
               b(1) = (  1.000000  0.000000  0.000000 )  
               b(2) = (  0.000000  0.731516  0.000000 )  
               b(3) = (  0.000000  0.000000  0.311144 )  


     PseudoPot. # 1 for V  read from file:
     /home/mpicuntureo/pseudos/v.nc.upf
     MD5 check sum: 40fb93c06b4f9d8c28c5ccd071294a04
     Pseudo is Norm-conserving + core correction, Zval = 13.0
     Generated using ONCVPSP code by D. R. Hamann
     Using radial grid of 1536 points,  6 beta functions with: 
                l(1) =   0
                l(2) =   0
                l(3) =   1
                l(4) =   1
                l(5) =   2
                l(6) =   2

     PseudoPot. # 2 for O  read from file:
     /home/mpicuntureo/pseudos/o.nc.upf
     MD5 check sum: 3e3f909f7470e8921608ab6b1f57bbae
     Pseudo is Norm-conserving + core correction, Zval =  6.0
     Generated using ONCVPSP code by D. R. Hamann
     Using radial grid of  936 points,  5 beta functions with: 
                l(1) =   0
                l(2) =   0
                l(3) =   1
                l(4) =   1
                l(5) =   2

     atomic species   valence    mass     pseudopotential
        V             13.00    50.94150     V ( 1.00)
        O              6.00    15.99940     O ( 1.00)

      8 Sym. Ops., with inversion, found ( 4 have fractional translation)



   Cartesian axes

     site n.     atom                  positions (alat units)
         1           V   tau(   1) = (   0.0000000   0.5342504   2.0850175  )
         2           V   tau(   2) = (   0.5000000   0.8327734   2.7359060  )
         3           V   tau(   3) = (   0.5000000   0.8327734   0.4780430  )
         4           V   tau(   4) = (   0.0000000   0.5342504   1.1289315  )
         5           O   tau(   5) = (   0.5000000   0.6694335   2.1905025  )
         6           O   tau(   6) = (   0.0000000   0.6975903   2.6304210  )
         7           O   tau(   7) = (   0.0000000   0.6975903   0.5835280  )
         8           O   tau(   8) = (   0.5000000   0.6694335   1.0234465  )
         9           O   tau(   9) = (   0.0000000   0.0924583   1.1437774  )
        10           O   tau(  10) = (   0.5000000   1.2745655   0.4631971  )
        11           O   tau(  11) = (   0.5000000   1.2745655   2.7507519  )
        12           O   tau(  12) = (   0.5000000   0.6849419  -0.0000000  )
        13           O   tau(  13) = (   0.0000000   0.6820819   1.6069745  )
        14           O   tau(  14) = (   0.0000000   0.0924583   2.0701716  )

     number of k points=     4
                       cart. coord. in units 2pi/alat
        k(    1) = (   0.0000000   0.0000000   0.0000000), wk =   0.2222222
        k(    2) = (   0.0000000   0.2438387   0.0000000), wk =   0.4444444
        k(    3) = (   0.3333333   0.0000000   0.0000000), wk =   0.4444444
        k(    4) = (   0.3333333   0.2438387   0.0000000), wk =   0.8888889

     Dense  grid:   155937 G-vectors     FFT dimensions: (  48,  60, 144)

     Estimated max dynamical RAM per process >      30.69 MB

     Estimated total dynamical RAM >     491.05 MB

     The initial density is read from file :
     ./v2o5.save/charge-density

     Cannot read wfcs: file not found
     Starting wfcs are   80 randomized atomic wfcs

     total cpu time spent up to now is        2.7 secs

     Self-consistent Calculation

     iteration #  1     ecut=    90.00 Ry     beta= 0.70
     Davidson diagonalization with overlap
     ethr =  1.00E-05,  avg # of iterations =  7.8

     Threshold (ethr) on eigenvalues was too large:
     Diagonalizing with lowered threshold

     Davidson diagonalization with overlap
     ethr =  1.11E-08,  avg # of iterations =  9.2

     total cpu time spent up to now is       13.4 secs

     total energy              =    -922.00274416 Ry
     Harris-Foulkes estimate   =    -922.00274418 Ry
     estimated scf accuracy    <       0.00000003 Ry

     iteration #  2     ecut=    90.00 Ry     beta= 0.70
     Davidson diagonalization with overlap
     ethr =  2.40E-11,  avg # of iterations =  7.2

     total cpu time spent up to now is       17.9 secs

     total energy              =    -922.00274437 Ry
     Harris-Foulkes estimate   =    -922.00274449 Ry
     estimated scf accuracy    <       0.00000054 Ry

     iteration #  3     ecut=    90.00 Ry     beta= 0.70
     Davidson diagonalization with overlap
     ethr =  2.40E-11,  avg # of iterations =  5.8

     total cpu time spent up to now is       21.5 secs

     total energy              =    -922.00274441 Ry
     Harris-Foulkes estimate   =    -922.00274442 Ry
     estimated scf accuracy    <       0.00000002 Ry

     iteration #  4     ecut=    90.00 Ry     beta= 0.70
     Davidson diagonalization with overlap
     ethr =  2.13E-11,  avg # of iterations =  3.0

     total cpu time spent up to now is       23.0 secs

     total energy              =    -922.00274442 Ry
     Harris-Foulkes estimate   =    -922.00274442 Ry
     estimated scf accuracy    <          8.3E-09 Ry

     iteration #  5     ecut=    90.00 Ry     beta= 0.70
     Davidson diagonalization with overlap
     ethr =  7.43E-12,  avg # of iterations =  4.5

     total cpu time spent up to now is       24.8 secs

     total energy              =    -922.00274442 Ry
     Harris-Foulkes estimate   =    -922.00274442 Ry
     estimated scf accuracy    <          5.6E-09 Ry

     iteration #  6     ecut=    90.00 Ry     beta= 0.70
     Davidson diagonalization with overlap
     ethr =  5.02E-12,  avg # of iterations =  1.5

     total cpu time spent up to now is       26.2 secs

     total energy              =    -922.00274442 Ry
     Harris-Foulkes estimate   =    -922.00274442 Ry
     estimated scf accuracy    <          4.7E-09 Ry

     iteration #  7     ecut=    90.00 Ry     beta= 0.70
     Davidson diagonalization with overlap
     ethr =  4.20E-12,  avg # of iterations =  1.5

     total cpu time spent up to now is       27.7 secs

     total energy              =    -922.00274442 Ry
     Harris-Foulkes estimate   =    -922.00274442 Ry
     estimated scf accuracy    <          3.3E-09 Ry

     iteration #  8     ecut=    90.00 Ry     beta= 0.70
     Davidson diagonalization with overlap
     ethr =  2.91E-12,  avg # of iterations =  2.5

     total cpu time spent up to now is       29.2 secs

     total energy              =    -922.00274442 Ry
     Harris-Foulkes estimate   =    -922.00274442 Ry
     estimated scf accuracy    <          2.2E-09 Ry

     iteration #  9     ecut=    90.00 Ry     beta= 0.70
     Davidson diagonalization with overlap
     ethr =  1.96E-12,  avg # of iterations =  2.5

     total cpu time spent up to now is       30.7 secs

     total energy              =    -922.00274442 Ry
     Harris-Foulkes estimate   =    -922.00274442 Ry
     estimated scf accuracy    <          1.5E-09 Ry

     iteration # 10     ecut=    90.00 Ry     beta= 0.70
     Davidson diagonalization with overlap
     ethr =  1.34E-12,  avg # of iterations =  3.0

     total cpu time spent up to now is       32.5 secs

     total energy              =    -922.00274442 Ry
     Harris-Foulkes estimate   =    -922.00274442 Ry
     estimated scf accuracy    <          7.1E-10 Ry

     iteration # 11     ecut=    90.00 Ry     beta= 0.70
     Davidson diagonalization with overlap
     ethr =  6.35E-13,  avg # of iterations =  5.2

     total cpu time spent up to now is       35.7 secs

     total energy              =    -922.00274442 Ry
     Harris-Foulkes estimate   =    -922.00274442 Ry
     estimated scf accuracy    <          1.8E-09 Ry

     iteration # 12     ecut=    90.00 Ry     beta= 0.70
     Davidson diagonalization with overlap
     ethr =  6.35E-13,  avg # of iterations =  1.0

     total cpu time spent up to now is       37.2 secs

     total energy              =    -922.00274442 Ry
     Harris-Foulkes estimate   =    -922.00274442 Ry
     estimated scf accuracy    <          1.7E-09 Ry

     iteration # 13     ecut=    90.00 Ry     beta= 0.70
     Davidson diagonalization with overlap
     ethr =  6.35E-13,  avg # of iterations =  1.0

     total cpu time spent up to now is       38.8 secs

     total energy              =    -922.00274442 Ry
     Harris-Foulkes estimate   =    -922.00274442 Ry
     estimated scf accuracy    <          1.7E-09 Ry

     iteration # 14     ecut=    90.00 Ry     beta= 0.70
     Davidson diagonalization with overlap
     ethr =  6.35E-13,  avg # of iterations =  4.0

     total cpu time spent up to now is       41.3 secs

     total energy              =    -922.00274442 Ry
     Harris-Foulkes estimate   =    -922.00274442 Ry
     estimated scf accuracy    <          5.8E-09 Ry

     iteration # 15     ecut=    90.00 Ry     beta= 0.70
     Davidson diagonalization with overlap
     ethr =  6.35E-13,  avg # of iterations =  5.0

     total cpu time spent up to now is       44.9 secs

     total energy              =    -922.00274442 Ry
     Harris-Foulkes estimate   =    -922.00274442 Ry
     estimated scf accuracy    <          3.1E-10 Ry

     iteration # 16     ecut=    90.00 Ry     beta= 0.70
     Davidson diagonalization with overlap
     ethr =  2.74E-13,  avg # of iterations =  4.2

     total cpu time spent up to now is       48.4 secs

     total energy              =    -922.00274442 Ry
     Harris-Foulkes estimate   =    -922.00274442 Ry
     estimated scf accuracy    <          2.1E-10 Ry

     iteration # 17     ecut=    90.00 Ry     beta= 0.70
     Davidson diagonalization with overlap
     ethr =  1.88E-13,  avg # of iterations =  3.5

     total cpu time spent up to now is       50.5 secs

     End of self-consistent calculation

          k = 0.0000 0.0000 0.0000 ( 19479 PWs)   bands (ev):

   -61.0005 -60.9984 -60.9893 -60.9872 -35.0426 -35.0402 -35.0314 -35.0258
   -34.9376 -34.8841 -34.8592 -34.8356 -34.8331 -34.8082 -34.7995 -34.7970
   -14.5275 -14.4111 -13.4336 -13.3340 -13.2599 -13.2034 -12.7868 -12.7695
   -12.6416 -12.6353  -1.4758  -1.4654  -1.2889  -1.2594  -1.0660  -0.7224
    -0.1469   0.0922   0.1962   0.2559   0.5064   0.5736   0.6563   0.7678
     0.7970   0.9376   1.0449   1.2120   1.2183   1.2965   1.3578   1.4088
     1.7160   1.7644   2.0355   2.0632   2.1511   2.2814   2.3753   2.4444

          k = 0.0000 0.2438 0.0000 ( 19478 PWs)   bands (ev):

   -61.0005 -60.9984 -60.9893 -60.9872 -35.0429 -35.0404 -35.0324 -35.0267
   -34.9375 -34.8839 -34.8591 -34.8356 -34.8331 -34.8082 -34.7995 -34.7970
   -14.4980 -14.3866 -13.4136 -13.3281 -13.2581 -13.1936 -12.7963 -12.7721
   -12.6446 -12.6117  -1.4925  -1.4817  -1.3055  -1.2778  -1.1717  -0.7529
    -0.7071  -0.3559  -0.2696  -0.2120   0.3752   0.3893   0.4503   0.8577
     0.8981   1.0596   1.2276   1.2754   1.3977   1.4749   1.5859   1.7184
     1.8896   1.9905   2.0075   2.1165   2.1977   2.3758   2.4520   2.5186

          k = 0.3333 0.0000 0.0000 ( 19486 PWs)   bands (ev):

   -60.9962 -60.9941 -60.9906 -60.9885 -35.0366 -35.0341 -35.0298 -35.0256
   -34.9349 -34.9096 -34.8946 -34.8868 -34.8384 -34.8332 -34.8174 -34.8065
   -13.9686 -13.8412 -13.3479 -13.2315 -13.2083 -13.1633 -12.7247 -12.7122
   -12.6655 -12.6606  -1.9462  -1.8706  -1.1109  -1.0583  -0.9634  -0.6318
    -0.5351  -0.2435  -0.2115   0.0702   0.1020   0.2131   0.5503   0.6488
     0.7128   0.7523   0.7710   0.8637   0.9897   1.0323   1.3007   1.3394
     1.4058   1.7361   2.1095   2.1910   2.2979   2.4811   2.6009   2.6236

          k = 0.3333 0.2438 0.0000 ( 19470 PWs)   bands (ev):

   -60.9961 -60.9941 -60.9906 -60.9885 -35.0369 -35.0345 -35.0306 -35.0263
   -34.9348 -34.9095 -34.8944 -34.8868 -34.8384 -34.8332 -34.8174 -34.8065
   -13.9433 -13.8230 -13.3331 -13.2307 -13.2016 -13.1552 -12.7322 -12.7127
   -12.6546 -12.6279  -1.9456  -1.8708  -1.1431  -1.0906  -1.0329  -0.6793
    -0.6641  -0.5500  -0.3852  -0.1949  -0.0999  -0.0856   0.3726   0.4188
     0.4419   0.5976   0.7009   0.7756   0.8220   1.1939   1.4698   1.6776
     1.8271   1.9402   2.2148   2.4472   2.4575   2.6075   2.6835   2.7189

     highest occupied level (ev):     2.7189

!    total energy              =    -922.00274442 Ry
     Harris-Foulkes estimate   =    -922.00274442 Ry
     estimated scf accuracy    <          3.5E-11 Ry

     The total energy is the sum of the following terms:

     one-electron contribution =    -664.14964427 Ry
     hartree contribution      =     367.16105444 Ry
     xc contribution           =    -173.98666546 Ry
     ewald contribution        =    -451.02748912 Ry

     convergence has been achieved in  17 iterations

     Forces acting on atoms (cartesian axes, Ry/au):

     atom    1 type  1   force =     0.00000000    0.00003075   -0.00000050
     atom    2 type  1   force =     0.00000000   -0.00003075    0.00000050
     atom    3 type  1   force =     0.00000000   -0.00003075   -0.00000050
     atom    4 type  1   force =     0.00000000    0.00003075    0.00000050
     atom    5 type  2   force =     0.00000000   -0.00000716    0.00000209
     atom    6 type  2   force =     0.00000000    0.00000716   -0.00000209
     atom    7 type  2   force =     0.00000000    0.00000716    0.00000209
     atom    8 type  2   force =    -0.00000000   -0.00000716   -0.00000209
     atom    9 type  2   force =     0.00000000   -0.00004161    0.00000037
     atom   10 type  2   force =     0.00000000    0.00004161   -0.00000037
     atom   11 type  2   force =    -0.00000000    0.00004161    0.00000037
     atom   12 type  2   force =     0.00000000   -0.00000741   -0.00000000
     atom   13 type  2   force =     0.00000000    0.00000741    0.00000000
     atom   14 type  2   force =     0.00000000   -0.00004161   -0.00000037

     Total force =     0.000105     Total SCF correction =     0.000012
     SCF correction compared to forces is large: reduce conv_thr to get better values


     Computing stress (Cartesian axis) and pressure

          total   stress  (Ry/bohr**3)                   (kbar)     P=    0.01
  -0.00000002   0.00000000   0.00000000         -0.00      0.00      0.00
   0.00000000   0.00000023   0.00000000          0.00      0.03      0.00
   0.00000000   0.00000000   0.00000004          0.00      0.00      0.01

     Message from routine bfgs:
     history already reset at previous step: stopping

     bfgs converged in   4 scf cycles and   2 bfgs steps
     (criteria: energy <  1.0E-04 Ry, force <  1.0E-05Ry/Bohr, cell <  5.0E-01kbar)

     End of BFGS Geometry Optimization

     Final enthalpy =    -922.0027444154 Ry
Begin final coordinates
     new unit-cell volume =   1351.08914 a.u.^3 (   200.21075 Ang^3 )
     density =      3.01701 g/cm^3

CELL_PARAMETERS (alat=  6.74981256)
   0.999993744   0.000000000   0.000000000
   0.000000000   1.367014447   0.000000000
   0.000000000   0.000000000   3.213945286

ATOMIC_POSITIONS (crystal)
V        0.000000000   0.390812807   0.648740062
V        0.500000002   0.609187197   0.851259944
V        0.500000002   0.609187197   0.148740061
V        0.000000000   0.390812807   0.351259941
O        0.500000002   0.489701414   0.681561072
O        0.000000000   0.510298591   0.818438933
O        0.000000000   0.510298591   0.181561071
O        0.500000002   0.489701414   0.318438931
O        0.000000000   0.067634763   0.355879139
O        0.500000002   0.932365241   0.144120864
O        0.500000002   0.932365241   0.855879140
O        0.500000002   0.501046055  -0.000000000
O        0.000000000   0.498953949   0.500000002
O        0.000000000   0.067634763   0.644120867
End final coordinates



     Writing output data file v2o5.save/

     A final scf calculation at the relaxed structure.
     The G-vectors are recalculated for the final unit cell
     Results may differ from those at the preceding step.

     Parallelization info
     --------------------
     sticks:   dense  smooth     PW     G-vecs:    dense   smooth      PW
     Min         112     112     29                 9744     9744    1363
     Max         114     114     30                 9748     9748    1376
     Sum        1795    1795    477               155937   155937   21969



     bravais-lattice index     =            8
     lattice parameter (alat)  =       6.7498  a.u.
     unit-cell volume          =    1351.0891 (a.u.)^3
     number of atoms/cell      =           14
     number of atomic types    =            2
     number of electrons       =       112.00
     number of Kohn-Sham states=           56
     kinetic-energy cutoff     =      90.0000  Ry
     charge density cutoff     =     360.0000  Ry
     convergence threshold     =      1.0E-10
     mixing beta               =       0.7000
     number of iterations used =            8  plain     mixing
     Exchange-correlation      = PBE ( 1  4  3  4 0 0)

     celldm(1)=   6.749770  celldm(2)=   1.367023  celldm(3)=   3.213965
     celldm(4)=   0.000000  celldm(5)=   0.000000  celldm(6)=   0.000000

     crystal axes: (cart. coord. in units of alat)
               a(1) = (   0.999994   0.000000   0.000000 )  
               a(2) = (   0.000000   1.367014   0.000000 )  
               a(3) = (   0.000000   0.000000   3.213945 )  

     reciprocal axes: (cart. coord. in units 2 pi/alat)
               b(1) = (  1.000006  0.000000  0.000000 )  
               b(2) = (  0.000000  0.731521  0.000000 )  
               b(3) = (  0.000000  0.000000  0.311144 )  


     PseudoPot. # 1 for V  read from file:
     /home/mpicuntureo/pseudos/v.nc.upf
     MD5 check sum: 40fb93c06b4f9d8c28c5ccd071294a04
     Pseudo is Norm-conserving + core correction, Zval = 13.0
     Generated using ONCVPSP code by D. R. Hamann
     Using radial grid of 1536 points,  6 beta functions with: 
                l(1) =   0
                l(2) =   0
                l(3) =   1
                l(4) =   1
                l(5) =   2
                l(6) =   2

     PseudoPot. # 2 for O  read from file:
     /home/mpicuntureo/pseudos/o.nc.upf
     MD5 check sum: 3e3f909f7470e8921608ab6b1f57bbae
     Pseudo is Norm-conserving + core correction, Zval =  6.0
     Generated using ONCVPSP code by D. R. Hamann
     Using radial grid of  936 points,  5 beta functions with: 
                l(1) =   0
                l(2) =   0
                l(3) =   1
                l(4) =   1
                l(5) =   2

     atomic species   valence    mass     pseudopotential
        V             13.00    50.94150     V ( 1.00)
        O              6.00    15.99940     O ( 1.00)

      8 Sym. Ops., with inversion, found ( 4 have fractional translation)



   Cartesian axes

     site n.     atom                  positions (alat units)
         1           V   tau(   1) = (   0.0000000   0.5342468   2.0850151  )
         2           V   tau(   2) = (   0.4999969   0.8327677   2.7359029  )
         3           V   tau(   3) = (   0.4999969   0.8327677   0.4780424  )
         4           V   tau(   4) = (   0.0000000   0.5342468   1.1289302  )
         5           O   tau(   5) = (   0.4999969   0.6694289   2.1905000  )
         6           O   tau(   6) = (   0.0000000   0.6975855   2.6304180  )
         7           O   tau(   7) = (   0.0000000   0.6975855   0.5835273  )
         8           O   tau(   8) = (   0.4999969   0.6694289   1.0234453  )
         9           O   tau(   9) = (   0.0000000   0.0924577   1.1437761  )
        10           O   tau(  10) = (   0.4999969   1.2745568   0.4631966  )
        11           O   tau(  11) = (   0.4999969   1.2745568   2.7507487  )
        12           O   tau(  12) = (   0.4999969   0.6849372  -0.0000000  )
        13           O   tau(  13) = (   0.0000000   0.6820773   1.6069726  )
        14           O   tau(  14) = (   0.0000000   0.0924577   2.0701692  )

     number of k points=     4
                       cart. coord. in units 2pi/alat
        k(    1) = (   0.0000000   0.0000000   0.0000000), wk =   0.2222222
        k(    2) = (   0.0000000   0.2438404   0.0000000), wk =   0.4444444
        k(    3) = (   0.3333354   0.0000000   0.0000000), wk =   0.4444444
        k(    4) = (   0.3333354   0.2438404   0.0000000), wk =   0.8888889

     Dense  grid:   155937 G-vectors     FFT dimensions: (  48,  60, 144)

     Estimated max dynamical RAM per process >      30.84 MB

     Estimated total dynamical RAM >     493.43 MB

     Initial potential from superposition of free atoms

     starting charge  111.99579, renormalised to  112.00000
     Starting wfcs are   80 randomized atomic wfcs

     total cpu time spent up to now is       56.6 secs

     Self-consistent Calculation

     iteration #  1     ecut=    90.00 Ry     beta= 0.70
     Davidson diagonalization with overlap
     ethr =  1.00E-06,  avg # of iterations =  7.8

     total cpu time spent up to now is       64.5 secs

     total energy              =    -917.39207317 Ry
     Harris-Foulkes estimate   =    -923.51330701 Ry
     estimated scf accuracy    <       7.68282596 Ry

     iteration #  2     ecut=    90.00 Ry     beta= 0.70
     Davidson diagonalization with overlap
     ethr =  6.86E-03,  avg # of iterations =  6.2

     total cpu time spent up to now is       69.7 secs

     total energy              =    -907.72244732 Ry
     Harris-Foulkes estimate   =    -938.67089984 Ry
     estimated scf accuracy    <     141.50517765 Ry

     iteration #  3     ecut=    90.00 Ry     beta= 0.70
     Davidson diagonalization with overlap
     ethr =  6.86E-03,  avg # of iterations =  5.2

     total cpu time spent up to now is       74.5 secs

     total energy              =    -921.70576819 Ry
     Harris-Foulkes estimate   =    -922.62216752 Ry
     estimated scf accuracy    <       2.99414745 Ry

     iteration #  4     ecut=    90.00 Ry     beta= 0.70
     Davidson diagonalization with overlap
     ethr =  2.67E-03,  avg # of iterations =  4.0

     total cpu time spent up to now is       77.1 secs

     total energy              =    -921.94882246 Ry
     Harris-Foulkes estimate   =    -922.09153943 Ry
     estimated scf accuracy    <       0.86179733 Ry

     iteration #  5     ecut=    90.00 Ry     beta= 0.70
     Davidson diagonalization with overlap
     ethr =  7.69E-04,  avg # of iterations =  3.8

     total cpu time spent up to now is       79.3 secs

     total energy              =    -921.88285596 Ry
     Harris-Foulkes estimate   =    -922.01149377 Ry
     estimated scf accuracy    <       0.46605030 Ry

     iteration #  6     ecut=    90.00 Ry     beta= 0.70
     Davidson diagonalization with overlap
     ethr =  4.16E-04,  avg # of iterations =  4.5

     total cpu time spent up to now is       82.6 secs

     total energy              =    -922.01308726 Ry
     Harris-Foulkes estimate   =    -922.02192762 Ry
     estimated scf accuracy    <       0.15274233 Ry

     iteration #  7     ecut=    90.00 Ry     beta= 0.70
     Davidson diagonalization with overlap
     ethr =  1.36E-04,  avg # of iterations =  2.2

     total cpu time spent up to now is       84.5 secs

     total energy              =    -921.98935856 Ry
     Harris-Foulkes estimate   =    -922.01585049 Ry
     estimated scf accuracy    <       0.13506972 Ry

     iteration #  8     ecut=    90.00 Ry     beta= 0.70
     Davidson diagonalization with overlap
     ethr =  1.21E-04,  avg # of iterations =  3.5

     total cpu time spent up to now is       86.7 secs

     total energy              =    -921.99359866 Ry
     Harris-Foulkes estimate   =    -921.99942322 Ry
     estimated scf accuracy    <       0.02629371 Ry

     iteration #  9     ecut=    90.00 Ry     beta= 0.70
     Davidson diagonalization with overlap
     ethr =  2.35E-05,  avg # of iterations =  4.2

     total cpu time spent up to now is       89.8 secs

     total energy              =    -922.00216682 Ry
     Harris-Foulkes estimate   =    -922.00378101 Ry
     estimated scf accuracy    <       0.00781494 Ry

     iteration # 10     ecut=    90.00 Ry     beta= 0.70
     Davidson diagonalization with overlap
     ethr =  6.98E-06,  avg # of iterations =  2.5

     total cpu time spent up to now is       91.9 secs

     total energy              =    -922.00167120 Ry
     Harris-Foulkes estimate   =    -922.00246953 Ry
     estimated scf accuracy    <       0.00331911 Ry

     iteration # 11     ecut=    90.00 Ry     beta= 0.70
     Davidson diagonalization with overlap
     ethr =  2.96E-06,  avg # of iterations =  4.2

     total cpu time spent up to now is       95.5 secs

     total energy              =    -922.00261262 Ry
     Harris-Foulkes estimate   =    -922.00298918 Ry
     estimated scf accuracy    <       0.00208956 Ry

     iteration # 12     ecut=    90.00 Ry     beta= 0.70
     Davidson diagonalization with overlap
     ethr =  1.87E-06,  avg # of iterations =  1.0

     total cpu time spent up to now is       97.6 secs

     total energy              =    -922.00258645 Ry
     Harris-Foulkes estimate   =    -922.00267202 Ry
     estimated scf accuracy    <       0.00097457 Ry

     iteration # 13     ecut=    90.00 Ry     beta= 0.70
     Davidson diagonalization with overlap
     ethr =  8.70E-07,  avg # of iterations =  4.0

     total cpu time spent up to now is      100.4 secs

     total energy              =    -922.00268250 Ry
     Harris-Foulkes estimate   =    -922.00269903 Ry
     estimated scf accuracy    <       0.00011687 Ry

     iteration # 14     ecut=    90.00 Ry     beta= 0.70
     Davidson diagonalization with overlap
     ethr =  1.04E-07,  avg # of iterations =  4.8

     total cpu time spent up to now is      104.4 secs

     total energy              =    -922.00274750 Ry
     Harris-Foulkes estimate   =    -922.00275169 Ry
     estimated scf accuracy    <       0.00004494 Ry

     iteration # 15     ecut=    90.00 Ry     beta= 0.70
     Davidson diagonalization with overlap
     ethr =  4.01E-08,  avg # of iterations =  1.0

     total cpu time spent up to now is      106.6 secs

     total energy              =    -922.00273778 Ry
     Harris-Foulkes estimate   =    -922.00274809 Ry
     estimated scf accuracy    <       0.00003521 Ry

     iteration # 16     ecut=    90.00 Ry     beta= 0.70
     Davidson diagonalization with overlap
     ethr =  3.14E-08,  avg # of iterations =  4.0

     total cpu time spent up to now is      110.1 secs

     total energy              =    -922.00274393 Ry
     Harris-Foulkes estimate   =    -922.00274419 Ry
     estimated scf accuracy    <       0.00000051 Ry

     iteration # 17     ecut=    90.00 Ry     beta= 0.70
     Davidson diagonalization with overlap
     ethr =  4.57E-10,  avg # of iterations =  5.2

     total cpu time spent up to now is      116.2 secs

     total energy              =    -922.00274438 Ry
     Harris-Foulkes estimate   =    -922.00274446 Ry
     estimated scf accuracy    <       0.00000030 Ry

     iteration # 18     ecut=    90.00 Ry     beta= 0.70
     Davidson diagonalization with overlap
     ethr =  2.64E-10,  avg # of iterations =  3.2

     total cpu time spent up to now is      119.7 secs

     total energy              =    -922.00274440 Ry
     Harris-Foulkes estimate   =    -922.00274440 Ry
     estimated scf accuracy    <       0.00000007 Ry

     iteration # 19     ecut=    90.00 Ry     beta= 0.70
     Davidson diagonalization with overlap
     ethr =  6.13E-11,  avg # of iterations =  4.5

     total cpu time spent up to now is      124.5 secs

     total energy              =    -922.00274442 Ry
     Harris-Foulkes estimate   =    -922.00274442 Ry
     estimated scf accuracy    <       0.00000001 Ry

     iteration # 20     ecut=    90.00 Ry     beta= 0.70
     Davidson diagonalization with overlap
     ethr =  1.29E-11,  avg # of iterations =  3.5

     total cpu time spent up to now is      127.2 secs

     total energy              =    -922.00274441 Ry
     Harris-Foulkes estimate   =    -922.00274442 Ry
     estimated scf accuracy    <       0.00000001 Ry

     iteration # 21     ecut=    90.00 Ry     beta= 0.70
     Davidson diagonalization with overlap
     ethr =  1.26E-11,  avg # of iterations =  4.0

     total cpu time spent up to now is      130.6 secs

     total energy              =    -922.00274441 Ry
     Harris-Foulkes estimate   =    -922.00274441 Ry
     estimated scf accuracy    <          1.4E-09 Ry

     iteration # 22     ecut=    90.00 Ry     beta= 0.70
     Davidson diagonalization with overlap
     ethr =  1.28E-12,  avg # of iterations =  5.0

     total cpu time spent up to now is      136.3 secs

     total energy              =    -922.00274442 Ry
     Harris-Foulkes estimate   =    -922.00274442 Ry
     estimated scf accuracy    <          4.6E-09 Ry

     iteration # 23     ecut=    90.00 Ry     beta= 0.70
     Davidson diagonalization with overlap
     ethr =  1.28E-12,  avg # of iterations =  1.0

     total cpu time spent up to now is      138.8 secs

     total energy              =    -922.00274441 Ry
     Harris-Foulkes estimate   =    -922.00274442 Ry
     estimated scf accuracy    <          3.5E-09 Ry

     iteration # 24     ecut=    90.00 Ry     beta= 0.70
     Davidson diagonalization with overlap
     ethr =  1.28E-12,  avg # of iterations =  4.0

     total cpu time spent up to now is      143.6 secs

     total energy              =    -922.00274442 Ry
     Harris-Foulkes estimate   =    -922.00274442 Ry
     estimated scf accuracy    <          2.4E-10 Ry

     iteration # 25     ecut=    90.00 Ry     beta= 0.70
     Davidson diagonalization with overlap
     ethr =  2.13E-13,  avg # of iterations =  1.5

     total cpu time spent up to now is      146.2 secs

     total energy              =    -922.00274442 Ry
     Harris-Foulkes estimate   =    -922.00274442 Ry
     estimated scf accuracy    <          1.4E-10 Ry

     iteration # 26     ecut=    90.00 Ry     beta= 0.70
     Davidson diagonalization with overlap
     ethr =  1.28E-13,  avg # of iterations =  3.5

     total cpu time spent up to now is      149.2 secs

     End of self-consistent calculation

          k = 0.0000 0.0000 0.0000 ( 19479 PWs)   bands (ev):

   -61.0005 -60.9984 -60.9893 -60.9872 -35.0426 -35.0402 -35.0314 -35.0258
   -34.9376 -34.8840 -34.8592 -34.8356 -34.8331 -34.8082 -34.7995 -34.7970
   -14.5275 -14.4111 -13.4336 -13.3340 -13.2599 -13.2034 -12.7868 -12.7695
   -12.6416 -12.6353  -1.4758  -1.4654  -1.2889  -1.2594  -1.0660  -0.7224
    -0.1469   0.0922   0.1962   0.2559   0.5064   0.5736   0.6563   0.7678
     0.7970   0.9376   1.0449   1.2120   1.2183   1.2965   1.3578   1.4088
     1.7160   1.7644   2.0355   2.0632   2.1511   2.2814   2.3753   2.4444

          k = 0.0000 0.2438 0.0000 ( 19478 PWs)   bands (ev):

   -61.0005 -60.9984 -60.9893 -60.9872 -35.0429 -35.0404 -35.0324 -35.0267
   -34.9374 -34.8839 -34.8591 -34.8356 -34.8331 -34.8082 -34.7995 -34.7970
   -14.4980 -14.3866 -13.4136 -13.3281 -13.2581 -13.1936 -12.7963 -12.7721
   -12.6446 -12.6117  -1.4925  -1.4817  -1.3055  -1.2778  -1.1717  -0.7529
    -0.7071  -0.3559  -0.2696  -0.2120   0.3752   0.3893   0.4503   0.8577
     0.8981   1.0596   1.2276   1.2754   1.3977   1.4749   1.5859   1.7184
     1.8896   1.9905   2.0075   2.1165   2.1977   2.3758   2.4520   2.5186

          k = 0.3333 0.0000 0.0000 ( 19486 PWs)   bands (ev):

   -60.9962 -60.9941 -60.9906 -60.9885 -35.0366 -35.0341 -35.0298 -35.0256
   -34.9349 -34.9096 -34.8946 -34.8868 -34.8384 -34.8332 -34.8174 -34.8065
   -13.9687 -13.8412 -13.3479 -13.2316 -13.2083 -13.1633 -12.7247 -12.7122
   -12.6655 -12.6606  -1.9462  -1.8706  -1.1109  -1.0583  -0.9634  -0.6318
    -0.5351  -0.2435  -0.2115   0.0702   0.1020   0.2131   0.5503   0.6488
     0.7128   0.7523   0.7710   0.8637   0.9897   1.0323   1.3007   1.3394
     1.4058   1.7361   2.1095   2.1910   2.2979   2.4811   2.6009   2.6236

          k = 0.3333 0.2438 0.0000 ( 19470 PWs)   bands (ev):

   -60.9961 -60.9941 -60.9906 -60.9885 -35.0369 -35.0345 -35.0306 -35.0263
   -34.9348 -34.9095 -34.8944 -34.8868 -34.8384 -34.8332 -34.8174 -34.8065
   -13.9433 -13.8230 -13.3331 -13.2307 -13.2016 -13.1552 -12.7322 -12.7127
   -12.6546 -12.6279  -1.9456  -1.8708  -1.1431  -1.0906  -1.0329  -0.6793
    -0.6641  -0.5500  -0.3852  -0.1949  -0.0999  -0.0856   0.3726   0.4188
     0.4419   0.5976   0.7009   0.7756   0.8220   1.1939   1.4698   1.6776
     1.8271   1.9402   2.2148   2.4472   2.4575   2.6075   2.6835   2.7189

     highest occupied level (ev):     2.7189

!    total energy              =    -922.00274442 Ry
     Harris-Foulkes estimate   =    -922.00274442 Ry
     estimated scf accuracy    <          7.7E-12 Ry

     The total energy is the sum of the following terms:

     one-electron contribution =    -664.14958937 Ry
     hartree contribution      =     367.16099866 Ry
     xc contribution           =    -173.98666458 Ry
     ewald contribution        =    -451.02748912 Ry

     convergence has been achieved in  26 iterations

     Forces acting on atoms (cartesian axes, Ry/au):

     atom    1 type  1   force =    -0.00000000    0.00003051   -0.00000059
     atom    2 type  1   force =     0.00000000   -0.00003051    0.00000059
     atom    3 type  1   force =     0.00000000   -0.00003051   -0.00000059
     atom    4 type  1   force =    -0.00000000    0.00003051    0.00000059
     atom    5 type  2   force =     0.00000000   -0.00000720    0.00000198
     atom    6 type  2   force =     0.00000000    0.00000720   -0.00000198
     atom    7 type  2   force =     0.00000000    0.00000720    0.00000198
     atom    8 type  2   force =    -0.00000000   -0.00000720   -0.00000198
     atom    9 type  2   force =     0.00000000   -0.00004117   -0.00000030
     atom   10 type  2   force =    -0.00000000    0.00004117    0.00000030
     atom   11 type  2   force =     0.00000000    0.00004117   -0.00000030
     atom   12 type  2   force =     0.00000000   -0.00000762    0.00000000
     atom   13 type  2   force =     0.00000000    0.00000762   -0.00000000
     atom   14 type  2   force =     0.00000000   -0.00004117    0.00000030

     Total force =     0.000104     Total SCF correction =     0.000007


     Computing stress (Cartesian axis) and pressure

          total   stress  (Ry/bohr**3)                   (kbar)     P=    0.01
  -0.00000002   0.00000000   0.00000000         -0.00      0.00      0.00
   0.00000000   0.00000022   0.00000000          0.00      0.03      0.00
   0.00000000   0.00000000   0.00000003          0.00      0.00      0.00


     Writing output data file v2o5.save/

     init_run     :      4.08s CPU      4.22s WALL (       2 calls)
     electrons    :    134.45s CPU    140.42s WALL (       2 calls)
     forces       :      3.38s CPU      3.42s WALL (       2 calls)
     stress       :      5.21s CPU      5.23s WALL (       2 calls)

     Called by init_run:
     wfcinit      :      1.77s CPU      1.89s WALL (       2 calls)
     potinit      :      0.26s CPU      0.27s WALL (       2 calls)
     hinit0       :      1.91s CPU      1.92s WALL (       2 calls)

     Called by electrons:
     c_bands      :    127.56s CPU    132.66s WALL (      44 calls)
     sum_band     :      5.80s CPU      6.55s WALL (      44 calls)
     v_of_rho     :      0.82s CPU      0.89s WALL (      45 calls)
     mix_rho      :      0.26s CPU      0.28s WALL (      44 calls)

     Called by c_bands:
     init_us_2    :      0.77s CPU      0.82s WALL (     376 calls)
     cegterg      :    124.07s CPU    129.03s WALL (     176 calls)

     Called by sum_band:

     Called by *egterg:
     h_psi        :     68.35s CPU     72.70s WALL (     868 calls)
     g_psi        :      0.19s CPU      0.19s WALL (     684 calls)
     cdiaghg      :     13.62s CPU     13.92s WALL (     856 calls)

     Called by h_psi:
     h_psi:pot    :     68.11s CPU     72.30s WALL (     868 calls)
     h_psi:calbec :     23.58s CPU     23.96s WALL (     868 calls)
     vloc_psi     :     30.60s CPU     34.38s WALL (     868 calls)
     add_vuspsi   :     13.92s CPU     13.96s WALL (     868 calls)

     General routines
     calbec       :     26.25s CPU     26.65s WALL (     908 calls)
     fft          :      0.80s CPU      0.86s WALL (     499 calls)
     ffts         :      0.04s CPU      0.05s WALL (      44 calls)
     fftw         :     33.30s CPU     37.48s WALL (   68780 calls)

     Parallel routines
     fft_scatt_xy :      2.01s CPU      2.27s WALL (   69323 calls)
     fft_scatt_yz :     22.92s CPU     25.75s WALL (   69323 calls)

     PWSCF        :   2m27.54s CPU   2m33.90s WALL


   This run was terminated on:  15:16:46  27Oct2024            

=------------------------------------------------------------------------------=
   JOB DONE.
=------------------------------------------------------------------------------=
