
     Program PWSCF v.6.4.1 starts on 27Oct2024 at 16:29: 1 

     This program is part of the open-source Quantum ESPRESSO suite
     for quantum simulation of materials; please cite
         "P. Giannozzi et al., J. Phys.:Condens. Matter 21 395502 (2009);
         "P. Giannozzi et al., J. Phys.:Condens. Matter 29 465901 (2017);
          URL http://www.quantum-espresso.org", 
     in publications or presentations arising from this work. More details at
     http://www.quantum-espresso.org/quote

     Parallel version (MPI), running on    16 processors

     MPI processes distributed on     1 nodes
     R & G space division:  proc/nbgrp/npool/nimage =      16
     Reading input from v2o5.vc-rlx.in

     Current dimensions of program PWSCF are:
     Max number of different atomic species (ntypx) = 10
     Max number of k-points (npk) =  40000
     Max angular momentum in pseudopotentials (lmaxx) =  3

     Atomic positions and unit cell read from directory:
     ./v2o5.save/

     Message from routine readpp:
     file ./v2o5.save/v.nc.upf not found
     Message from routine readpp:
     file ./v2o5.save/o.nc.upf not found

     Subspace diagonalization in iterative solution of the eigenvalue problem:
     one sub-group per band group will be used
     ELPA distributed-memory algorithm (size of sub-group:  2*  2 procs)


     Parallelization info
     --------------------
     sticks:   dense  smooth     PW     G-vecs:    dense   smooth      PW
     Min          55      55     15                 3537     3537     517
     Max          56      56     16                 3543     3543     526
     Sum         881     881    241                56653    56653    8319



     bravais-lattice index     =            8
     lattice parameter (alat)  =       6.6474  a.u.
     unit-cell volume          =    1186.5975 (a.u.)^3
     number of atoms/cell      =           14
     number of atomic types    =            2
     number of electrons       =       112.00
     number of Kohn-Sham states=           56
     kinetic-energy cutoff     =      50.0000  Ry
     charge density cutoff     =     200.0000  Ry
     convergence threshold     =      1.0E-10
     mixing beta               =       0.7000
     number of iterations used =            8  plain     mixing
     Exchange-correlation      = PBE ( 1  4  3  4 0 0)
     nstep                     =          500


     celldm(1)=   6.408147  celldm(2)=   1.184804  celldm(3)=   3.194728
     celldm(4)=   0.000000  celldm(5)=   0.000000  celldm(6)=   0.000000

     crystal axes: (cart. coord. in units of alat)
               a(1) = (   1.000000   0.000000   0.000000 )  
               a(2) = (   0.000000   1.258937   0.000000 )  
               a(3) = (   0.000000   0.000000   3.208860 )  

     reciprocal axes: (cart. coord. in units 2 pi/alat)
               b(1) = (  1.000000  0.000000  0.000000 )  
               b(2) = (  0.000000  0.794321  0.000000 )  
               b(3) = (  0.000000  0.000000  0.311637 )  


     PseudoPot. # 1 for V  read from file:
     /home/mpicuntureo/pseudos/v.nc.upf
     MD5 check sum: 40fb93c06b4f9d8c28c5ccd071294a04
     Pseudo is Norm-conserving + core correction, Zval = 13.0
     Generated using ONCVPSP code by D. R. Hamann
     Using radial grid of 1536 points,  6 beta functions with: 
                l(1) =   0
                l(2) =   0
                l(3) =   1
                l(4) =   1
                l(5) =   2
                l(6) =   2

     PseudoPot. # 2 for O  read from file:
     /home/mpicuntureo/pseudos/o.nc.upf
     MD5 check sum: 3e3f909f7470e8921608ab6b1f57bbae
     Pseudo is Norm-conserving + core correction, Zval =  6.0
     Generated using ONCVPSP code by D. R. Hamann
     Using radial grid of  936 points,  5 beta functions with: 
                l(1) =   0
                l(2) =   0
                l(3) =   1
                l(4) =   1
                l(5) =   2

     atomic species   valence    mass     pseudopotential
        V             13.00    50.94150     V ( 1.00)
        O              6.00    15.99940     O ( 1.00)

      8 Sym. Ops., with inversion, found ( 4 have fractional translation)



   Cartesian axes

     site n.     atom                  positions (alat units)
         1           V   tau(   1) = (  -0.0000000   0.4530307   2.0886987  )
         2           V   tau(   2) = (   0.5000000   0.8059066   2.7245912  )
         3           V   tau(   3) = (   0.5000000   0.8059066   0.4842687  )
         4           V   tau(   4) = (   0.0000000   0.4530307   1.1201612  )
         5           O   tau(   5) = (   0.5000000   0.6305246   2.1702312  )
         6           O   tau(   6) = (   0.0000000   0.6284126   2.6430586  )
         7           O   tau(   7) = (  -0.0000000   0.6284126   0.5658013  )
         8           O   tau(   8) = (   0.5000000   0.6305246   1.0386287  )
         9           O   tau(   9) = (  -0.0000000  -0.0406332   1.1361164  )
        10           O   tau(  10) = (   0.5000000   1.2995704   0.4683135  )
        11           O   tau(  11) = (   0.5000000   1.2995704   2.7405464  )
        12           O   tau(  12) = (   0.5000000   0.6414576   0.0000000  )
        13           O   tau(  13) = (   0.0000000   0.6174796   1.6044299  )
        14           O   tau(  14) = (   0.0000000  -0.0406332   2.0727435  )

     number of k points=     4
                       cart. coord. in units 2pi/alat
        k(    1) = (   0.0000000   0.0000000   0.0000000), wk =   0.2222222
        k(    2) = (   0.0000000   0.2647736   0.0000000), wk =   0.4444444
        k(    3) = (   0.3333333   0.0000000   0.0000000), wk =   0.4444444
        k(    4) = (   0.3333333   0.2647736   0.0000000), wk =   0.8888889

     Dense  grid:    56653 G-vectors     FFT dimensions: (  30,  40, 100)

     Estimated max dynamical RAM per process >      13.98 MB

     Estimated total dynamical RAM >     223.74 MB

     Check: negative core charge=   -0.000083

     The initial density is read from file :
     ./v2o5.save/charge-density

     Cannot read wfcs: file not found
     Starting wfcs are   80 randomized atomic wfcs

     total cpu time spent up to now is        0.8 secs

     Self-consistent Calculation

     iteration #  1     ecut=    50.00 Ry     beta= 0.70
     Davidson diagonalization with overlap
     ethr =  1.00E-05,  avg # of iterations =  7.8

     Threshold (ethr) on eigenvalues was too large:
     Diagonalizing with lowered threshold

     Davidson diagonalization with overlap
     ethr =  1.55E-08,  avg # of iterations =  7.5

     total cpu time spent up to now is        3.1 secs

     total energy              =    -921.50641670 Ry
     Harris-Foulkes estimate   =    -921.50641672 Ry
     estimated scf accuracy    <       0.00000003 Ry

     iteration #  2     ecut=    50.00 Ry     beta= 0.70
     Davidson diagonalization with overlap
     ethr =  2.78E-11,  avg # of iterations =  7.5

     total cpu time spent up to now is        4.2 secs

     total energy              =    -921.50641699 Ry
     Harris-Foulkes estimate   =    -921.50641708 Ry
     estimated scf accuracy    <       0.00000028 Ry

     iteration #  3     ecut=    50.00 Ry     beta= 0.70
     Davidson diagonalization with overlap
     ethr =  2.78E-11,  avg # of iterations =  5.0

     total cpu time spent up to now is        5.1 secs

     total energy              =    -921.50641702 Ry
     Harris-Foulkes estimate   =    -921.50641702 Ry
     estimated scf accuracy    <       0.00000002 Ry

     iteration #  4     ecut=    50.00 Ry     beta= 0.70
     Davidson diagonalization with overlap
     ethr =  1.47E-11,  avg # of iterations =  1.0

     total cpu time spent up to now is        5.4 secs

     total energy              =    -921.50641702 Ry
     Harris-Foulkes estimate   =    -921.50641702 Ry
     estimated scf accuracy    <       0.00000001 Ry

     iteration #  5     ecut=    50.00 Ry     beta= 0.70
     Davidson diagonalization with overlap
     ethr =  9.15E-12,  avg # of iterations =  1.5

     total cpu time spent up to now is        5.7 secs

     total energy              =    -921.50641702 Ry
     Harris-Foulkes estimate   =    -921.50641702 Ry
     estimated scf accuracy    <          5.7E-09 Ry

     iteration #  6     ecut=    50.00 Ry     beta= 0.70
     Davidson diagonalization with overlap
     ethr =  5.10E-12,  avg # of iterations =  3.5

     total cpu time spent up to now is        6.1 secs

     total energy              =    -921.50641702 Ry
     Harris-Foulkes estimate   =    -921.50641702 Ry
     estimated scf accuracy    <          3.6E-09 Ry

     iteration #  7     ecut=    50.00 Ry     beta= 0.70
     Davidson diagonalization with overlap
     ethr =  3.20E-12,  avg # of iterations =  3.2

     total cpu time spent up to now is        6.5 secs

     total energy              =    -921.50641702 Ry
     Harris-Foulkes estimate   =    -921.50641702 Ry
     estimated scf accuracy    <          1.9E-09 Ry

     iteration #  8     ecut=    50.00 Ry     beta= 0.70
     Davidson diagonalization with overlap
     ethr =  1.70E-12,  avg # of iterations =  3.2

     total cpu time spent up to now is        6.9 secs

     total energy              =    -921.50641702 Ry
     Harris-Foulkes estimate   =    -921.50641702 Ry
     estimated scf accuracy    <          1.6E-09 Ry

     iteration #  9     ecut=    50.00 Ry     beta= 0.70
     Davidson diagonalization with overlap
     ethr =  1.40E-12,  avg # of iterations =  2.0

     total cpu time spent up to now is        7.2 secs

     total energy              =    -921.50641702 Ry
     Harris-Foulkes estimate   =    -921.50641702 Ry
     estimated scf accuracy    <          1.4E-09 Ry

     iteration # 10     ecut=    50.00 Ry     beta= 0.70
     Davidson diagonalization with overlap
     ethr =  1.26E-12,  avg # of iterations =  1.5

     total cpu time spent up to now is        7.5 secs

     total energy              =    -921.50641702 Ry
     Harris-Foulkes estimate   =    -921.50641702 Ry
     estimated scf accuracy    <          1.0E-09 Ry

     iteration # 11     ecut=    50.00 Ry     beta= 0.70
     Davidson diagonalization with overlap
     ethr =  9.02E-13,  avg # of iterations =  4.0

     total cpu time spent up to now is        8.0 secs

     total energy              =    -921.50641702 Ry
     Harris-Foulkes estimate   =    -921.50641702 Ry
     estimated scf accuracy    <          1.2E-10 Ry

     iteration # 12     ecut=    50.00 Ry     beta= 0.70
     Davidson diagonalization with overlap
     ethr =  1.05E-13,  avg # of iterations =  4.2

     total cpu time spent up to now is        8.5 secs

     End of self-consistent calculation

          k = 0.0000 0.0000 0.0000 (  7089 PWs)   bands (ev):

   -57.1565 -57.1503 -57.1292 -57.1256 -31.2812 -31.2609 -31.2408 -31.2229
   -31.2198 -31.1512 -31.1015 -31.0960 -31.0917 -31.0313 -31.0289 -31.0267
   -11.5314 -11.3400 -10.2628 -10.1598  -9.8337  -9.6395  -9.1616  -9.1283
    -9.0188  -8.9369   1.8768   1.8865   1.9330   2.0160   2.3752   2.6751
     3.0992   3.4304   3.7191   3.8704   4.0983   4.4142   4.4685   4.5845
     4.6437   4.7436   4.8061   4.9643   5.0207   5.0588   5.2452   5.3045
     5.5081   5.5767   5.6634   5.7801   5.9243   5.9587   5.9750   6.3023

          k = 0.0000 0.2918 0.0000 (  7095 PWs)   bands (ev):

   -57.1570 -57.1512 -57.1293 -57.1246 -31.2876 -31.2698 -31.2567 -31.2360
   -31.2230 -31.1486 -31.1022 -31.0948 -31.0904 -31.0313 -31.0288 -31.0267
   -11.3324 -11.1669 -10.1377 -10.0882  -9.7784  -9.6019  -9.1551  -9.1182
    -8.8292  -8.7938   1.7058   1.7165   1.7652   1.7718   1.8314   1.9592
     2.3660   2.5513   2.5643   2.8703   3.3025   3.4828   3.6334   4.5273
     4.5446   4.5579   4.8521   4.8798   5.1883   5.5397   5.5620   5.7143
     5.7862   6.1658   6.1694   6.2026   6.2159   6.3363   6.6339   6.8519

          k = 0.3458 0.0000 0.0000 (  7077 PWs)   bands (ev):

   -57.1439 -57.1401 -57.1315 -57.1272 -31.2721 -31.2550 -31.2336 -31.2235
   -31.2201 -31.2158 -31.1849 -31.1726 -31.0859 -31.0836 -31.0568 -31.0297
   -10.8188 -10.6067  -9.9539  -9.8647  -9.8386  -9.5899  -9.1377  -9.1171
    -9.0623  -8.9899   1.3625   1.4743   1.8641   2.3428   2.5129   2.5900
     2.7473   3.0526   3.2126   3.6643   3.8517   3.9371   4.2673   4.3623
     4.4498   4.4773   4.6990   4.7284   4.8228   5.2651   5.3893   5.4088
     5.4252   5.5123   5.5980   5.6551   5.6732   6.0325   6.1574   6.5724

          k = 0.3458 0.2918 0.0000 (  7079 PWs)   bands (ev):

   -57.1428 -57.1418 -57.1320 -57.1281 -31.2774 -31.2640 -31.2457 -31.2337
   -31.2263 -31.2162 -31.1838 -31.1715 -31.0859 -31.0838 -31.0572 -31.0301
   -10.6537 -10.4802  -9.9135  -9.8563  -9.7153  -9.5489  -9.0232  -8.9968
    -8.8644  -8.8453   1.2773   1.3877   1.6827   2.0014   2.0633   2.1085
     2.4087   2.4612   2.5479   2.6670   2.8333   3.1544   3.5752   3.7642
     3.9861   4.1152   4.2988   4.3580   4.7177   5.0991   5.5184   5.6768
     5.9188   6.0134   6.3103   6.3316   6.4716   6.5291   6.7467   6.8494

     highest occupied level (ev):     6.8519

!    total energy              =    -921.50641702 Ry
     Harris-Foulkes estimate   =    -921.50641702 Ry
     estimated scf accuracy    <          8.8E-11 Ry

     The total energy is the sum of the following terms:

     one-electron contribution =    -481.91342460 Ry
     hartree contribution      =     291.64616648 Ry
     xc contribution           =    -175.04720629 Ry
     ewald contribution        =    -556.19195260 Ry

     convergence has been achieved in  12 iterations

     Forces acting on atoms (cartesian axes, Ry/au):

     atom    1 type  1   force =     0.00000000    0.00001709    0.00001342
     atom    2 type  1   force =     0.00000000   -0.00001709   -0.00001342
     atom    3 type  1   force =     0.00000000   -0.00001709    0.00001342
     atom    4 type  1   force =     0.00000000    0.00001709   -0.00001342
     atom    5 type  2   force =     0.00000000    0.00000385   -0.00001079
     atom    6 type  2   force =     0.00000000   -0.00000385    0.00001079
     atom    7 type  2   force =     0.00000000   -0.00000385   -0.00001079
     atom    8 type  2   force =    -0.00000000    0.00000385    0.00001079
     atom    9 type  2   force =     0.00000000   -0.00002174   -0.00000147
     atom   10 type  2   force =     0.00000000    0.00002174    0.00000147
     atom   11 type  2   force =     0.00000000    0.00002174   -0.00000147
     atom   12 type  2   force =     0.00000000   -0.00000547    0.00000000
     atom   13 type  2   force =     0.00000000    0.00000547    0.00000000
     atom   14 type  2   force =    -0.00000000   -0.00002174    0.00000147

     Total force =     0.000066     Total SCF correction =     0.000035
     SCF correction compared to forces is large: reduce conv_thr to get better values


     Computing stress (Cartesian axis) and pressure

          total   stress  (Ry/bohr**3)                   (kbar)     P=    0.08
   0.00000044   0.00000000   0.00000000          0.06      0.00      0.00
   0.00000000   0.00000068   0.00000000          0.00      0.10      0.00
   0.00000000   0.00000000   0.00000049          0.00      0.00      0.07

     Message from routine bfgs:
     history already reset at previous step: stopping

     bfgs converged in  31 scf cycles and  29 bfgs steps
     (criteria: energy <  1.0E-04 Ry, force <  1.0E-05Ry/Bohr, cell <  5.0E-01kbar)

     End of BFGS Geometry Optimization

     Final enthalpy =    -921.5064170172 Ry
Begin final coordinates
     new unit-cell volume =    996.04247 a.u.^3 (   147.59826 Ang^3 )
     density =      4.09244 g/cm^3

CELL_PARAMETERS (alat=  6.64736521)
   0.964013045   0.000000000   0.000000000
   0.000000000   1.142166940   0.000000000
   0.000000000   0.000000000   3.079759057

ATOMIC_POSITIONS (crystal)
V       -0.000000000   0.359851680   0.650916157
V        0.500000019   0.640148357   0.849083899
V        0.500000019   0.640148357   0.150916139
V        0.000000000   0.359851680   0.349083879
O        0.500000019   0.500838835   0.676324724
O        0.000000000   0.499161203   0.823675331
O       -0.000000000   0.499161203   0.176324706
O        0.500000019   0.500838835   0.323675312
O       -0.000000000  -0.032275790   0.354056114
O        0.500000019   1.032275827   0.145943905
O        0.500000019   1.032275827   0.854056132
O        0.500000019   0.509523134   0.000000000
O        0.000000000   0.490476904   0.500000019
O        0.000000000  -0.032275790   0.645943925
End final coordinates



     Writing output data file v2o5.save/

     A final scf calculation at the relaxed structure.
     The G-vectors are recalculated for the final unit cell
     Results may differ from those at the preceding step.

     Parallelization info
     --------------------
     sticks:   dense  smooth     PW     G-vecs:    dense   smooth      PW
     Min          48      48     13                 2972     2972     439
     Max          49      49     14                 2977     2977     450
     Sum         783     783    213                47595    47595    7077



     bravais-lattice index     =            8
     lattice parameter (alat)  =       6.6474  a.u.
     unit-cell volume          =     996.0425 (a.u.)^3
     number of atoms/cell      =           14
     number of atomic types    =            2
     number of electrons       =       112.00
     number of Kohn-Sham states=           56
     kinetic-energy cutoff     =      50.0000  Ry
     charge density cutoff     =     200.0000  Ry
     convergence threshold     =      1.0E-10
     mixing beta               =       0.7000
     number of iterations used =            8  plain     mixing
     Exchange-correlation      = PBE ( 1  4  3  4 0 0)

     celldm(1)=   6.408147  celldm(2)=   1.184804  celldm(3)=   3.194728
     celldm(4)=   0.000000  celldm(5)=   0.000000  celldm(6)=   0.000000

     crystal axes: (cart. coord. in units of alat)
               a(1) = (   0.964013   0.000000   0.000000 )  
               a(2) = (   0.000000   1.142167   0.000000 )  
               a(3) = (   0.000000   0.000000   3.079759 )  

     reciprocal axes: (cart. coord. in units 2 pi/alat)
               b(1) = (  1.037330  0.000000  0.000000 )  
               b(2) = (  0.000000  0.875529  0.000000 )  
               b(3) = (  0.000000  0.000000  0.324701 )  


     PseudoPot. # 1 for V  read from file:
     /home/mpicuntureo/pseudos/v.nc.upf
     MD5 check sum: 40fb93c06b4f9d8c28c5ccd071294a04
     Pseudo is Norm-conserving + core correction, Zval = 13.0
     Generated using ONCVPSP code by D. R. Hamann
     Using radial grid of 1536 points,  6 beta functions with: 
                l(1) =   0
                l(2) =   0
                l(3) =   1
                l(4) =   1
                l(5) =   2
                l(6) =   2

     PseudoPot. # 2 for O  read from file:
     /home/mpicuntureo/pseudos/o.nc.upf
     MD5 check sum: 3e3f909f7470e8921608ab6b1f57bbae
     Pseudo is Norm-conserving + core correction, Zval =  6.0
     Generated using ONCVPSP code by D. R. Hamann
     Using radial grid of  936 points,  5 beta functions with: 
                l(1) =   0
                l(2) =   0
                l(3) =   1
                l(4) =   1
                l(5) =   2

     atomic species   valence    mass     pseudopotential
        V             13.00    50.94150     V ( 1.00)
        O              6.00    15.99940     O ( 1.00)

      8 Sym. Ops., with inversion, found ( 4 have fractional translation)



   Cartesian axes

     site n.     atom                  positions (alat units)
         1           V   tau(   1) = (  -0.0000000   0.4110107   2.0046649  )
         2           V   tau(   2) = (   0.4820065   0.7311563   2.6149738  )
         3           V   tau(   3) = (   0.4820065   0.7311563   0.4647853  )
         4           V   tau(   4) = (   0.0000000   0.4110107   1.0750942  )
         5           O   tau(   5) = (   0.4820065   0.5720416   2.0829172  )
         6           O   tau(   6) = (   0.0000000   0.5701254   2.5367216  )
         7           O   tau(   7) = (  -0.0000000   0.5701254   0.5430376  )
         8           O   tau(   8) = (   0.4820065   0.5720416   0.9968420  )
         9           O   tau(   9) = (  -0.0000000  -0.0368643   1.0904075  )
        10           O   tau(  10) = (   0.4820065   1.1790313   0.4494721  )
        11           O   tau(  11) = (   0.4820065   1.1790313   2.6302871  )
        12           O   tau(  12) = (   0.4820065   0.5819605   0.0000000  )
        13           O   tau(  13) = (   0.0000000   0.5602065   1.5398796  )
        14           O   tau(  14) = (   0.0000000  -0.0368643   1.9893517  )

     number of k points=     4
                       cart. coord. in units 2pi/alat
        k(    1) = (   0.0000000   0.0000000   0.0000000), wk =   0.2222222
        k(    2) = (   0.0000000   0.2918429   0.0000000), wk =   0.4444444
        k(    3) = (   0.3457768   0.0000000   0.0000000), wk =   0.4444444
        k(    4) = (   0.3457768   0.2918429   0.0000000), wk =   0.8888889

     Dense  grid:    47595 G-vectors     FFT dimensions: (  30,  36,  96)

     Estimated max dynamical RAM per process >      12.64 MB

     Estimated total dynamical RAM >     202.32 MB

     Check: negative core charge=   -0.000186

     Initial potential from superposition of free atoms

     starting charge  111.99579, renormalised to  112.00000
     Starting wfcs are   80 randomized atomic wfcs

     total cpu time spent up to now is        9.6 secs

     Self-consistent Calculation

     iteration #  1     ecut=    50.00 Ry     beta= 0.70
     Davidson diagonalization with overlap
     ethr =  1.00E-06,  avg # of iterations =  7.5

     total cpu time spent up to now is       11.0 secs

     total energy              =    -916.99016395 Ry
     Harris-Foulkes estimate   =    -922.53129064 Ry
     estimated scf accuracy    <       7.02853233 Ry

     iteration #  2     ecut=    50.00 Ry     beta= 0.70
     Davidson diagonalization with overlap
     ethr =  6.28E-03,  avg # of iterations =  6.8

     total cpu time spent up to now is       11.9 secs

     total energy              =    -908.05072482 Ry
     Harris-Foulkes estimate   =    -933.36158167 Ry
     estimated scf accuracy    <     107.84616158 Ry

     iteration #  3     ecut=    50.00 Ry     beta= 0.70
     Davidson diagonalization with overlap
     ethr =  6.28E-03,  avg # of iterations =  5.5

     total cpu time spent up to now is       12.8 secs

     total energy              =    -920.90335348 Ry
     Harris-Foulkes estimate   =    -921.52911486 Ry
     estimated scf accuracy    <       2.26863892 Ry

     iteration #  4     ecut=    50.00 Ry     beta= 0.70
     Davidson diagonalization with overlap
     ethr =  2.03E-03,  avg # of iterations =  3.0

     total cpu time spent up to now is       13.2 secs

     total energy              =    -920.95143907 Ry
     Harris-Foulkes estimate   =    -921.09908216 Ry
     estimated scf accuracy    <       0.91563676 Ry

     iteration #  5     ecut=    50.00 Ry     beta= 0.70
     Davidson diagonalization with overlap
     ethr =  8.18E-04,  avg # of iterations =  3.8

     total cpu time spent up to now is       13.5 secs

     total energy              =    -920.89805382 Ry
     Harris-Foulkes estimate   =    -921.01126603 Ry
     estimated scf accuracy    <       0.43957805 Ry

     iteration #  6     ecut=    50.00 Ry     beta= 0.70
     Davidson diagonalization with overlap
     ethr =  3.92E-04,  avg # of iterations =  4.0

     total cpu time spent up to now is       14.1 secs

     total energy              =    -921.02788439 Ry
     Harris-Foulkes estimate   =    -921.03152776 Ry
     estimated scf accuracy    <       0.06736358 Ry

     iteration #  7     ecut=    50.00 Ry     beta= 0.70
     Davidson diagonalization with overlap
     ethr =  6.01E-05,  avg # of iterations =  4.0

     total cpu time spent up to now is       14.4 secs

     total energy              =    -921.01916171 Ry
     Harris-Foulkes estimate   =    -921.03412575 Ry
     estimated scf accuracy    <       0.07429289 Ry

     iteration #  8     ecut=    50.00 Ry     beta= 0.70
     Davidson diagonalization with overlap
     ethr =  6.01E-05,  avg # of iterations =  2.8

     total cpu time spent up to now is       14.8 secs

     total energy              =    -921.01585133 Ry
     Harris-Foulkes estimate   =    -921.02234529 Ry
     estimated scf accuracy    <       0.02743108 Ry

     iteration #  9     ecut=    50.00 Ry     beta= 0.70
     Davidson diagonalization with overlap
     ethr =  2.45E-05,  avg # of iterations =  4.0

     total cpu time spent up to now is       15.3 secs

     total energy              =    -921.02215209 Ry
     Harris-Foulkes estimate   =    -921.02329531 Ry
     estimated scf accuracy    <       0.00323417 Ry

     iteration # 10     ecut=    50.00 Ry     beta= 0.70
     Davidson diagonalization with overlap
     ethr =  2.89E-06,  avg # of iterations =  4.0

     total cpu time spent up to now is       15.8 secs

     total energy              =    -921.02278663 Ry
     Harris-Foulkes estimate   =    -921.02287416 Ry
     estimated scf accuracy    <       0.00037210 Ry

     iteration # 11     ecut=    50.00 Ry     beta= 0.70
     Davidson diagonalization with overlap
     ethr =  3.32E-07,  avg # of iterations =  4.0

     total cpu time spent up to now is       16.3 secs

     total energy              =    -921.02280608 Ry
     Harris-Foulkes estimate   =    -921.02283436 Ry
     estimated scf accuracy    <       0.00010255 Ry

     iteration # 12     ecut=    50.00 Ry     beta= 0.70
     Davidson diagonalization with overlap
     ethr =  9.16E-08,  avg # of iterations =  4.0

     total cpu time spent up to now is       16.8 secs

     total energy              =    -921.02283521 Ry
     Harris-Foulkes estimate   =    -921.02284171 Ry
     estimated scf accuracy    <       0.00002649 Ry

     iteration # 13     ecut=    50.00 Ry     beta= 0.70
     Davidson diagonalization with overlap
     ethr =  2.37E-08,  avg # of iterations =  4.0

     total cpu time spent up to now is       17.2 secs

     total energy              =    -921.02283467 Ry
     Harris-Foulkes estimate   =    -921.02283671 Ry
     estimated scf accuracy    <       0.00000716 Ry

     iteration # 14     ecut=    50.00 Ry     beta= 0.70
     Davidson diagonalization with overlap
     ethr =  6.39E-09,  avg # of iterations =  4.0

     total cpu time spent up to now is       17.7 secs

     total energy              =    -921.02283714 Ry
     Harris-Foulkes estimate   =    -921.02283756 Ry
     estimated scf accuracy    <       0.00000159 Ry

     iteration # 15     ecut=    50.00 Ry     beta= 0.70
     Davidson diagonalization with overlap
     ethr =  1.42E-09,  avg # of iterations =  4.0

     total cpu time spent up to now is       18.1 secs

     total energy              =    -921.02283729 Ry
     Harris-Foulkes estimate   =    -921.02283730 Ry
     estimated scf accuracy    <       0.00000007 Ry

     iteration # 16     ecut=    50.00 Ry     beta= 0.70
     Davidson diagonalization with overlap
     ethr =  6.01E-11,  avg # of iterations =  5.0

     total cpu time spent up to now is       18.8 secs

     total energy              =    -921.02283733 Ry
     Harris-Foulkes estimate   =    -921.02283733 Ry
     estimated scf accuracy    <       0.00000002 Ry

     iteration # 17     ecut=    50.00 Ry     beta= 0.70
     Davidson diagonalization with overlap
     ethr =  1.99E-11,  avg # of iterations =  4.2

     total cpu time spent up to now is       19.2 secs

     total energy              =    -921.02283733 Ry
     Harris-Foulkes estimate   =    -921.02283733 Ry
     estimated scf accuracy    <       0.00000002 Ry

     iteration # 18     ecut=    50.00 Ry     beta= 0.70
     Davidson diagonalization with overlap
     ethr =  1.99E-11,  avg # of iterations =  3.8

     total cpu time spent up to now is       19.6 secs

     total energy              =    -921.02283733 Ry
     Harris-Foulkes estimate   =    -921.02283733 Ry
     estimated scf accuracy    <       0.00000001 Ry

     iteration # 19     ecut=    50.00 Ry     beta= 0.70
     Davidson diagonalization with overlap
     ethr =  1.02E-11,  avg # of iterations =  3.8

     total cpu time spent up to now is       20.0 secs

     total energy              =    -921.02283733 Ry
     Harris-Foulkes estimate   =    -921.02283733 Ry
     estimated scf accuracy    <          3.0E-09 Ry

     iteration # 20     ecut=    50.00 Ry     beta= 0.70
     Davidson diagonalization with overlap
     ethr =  2.71E-12,  avg # of iterations =  4.0

     total cpu time spent up to now is       20.4 secs

     total energy              =    -921.02283733 Ry
     Harris-Foulkes estimate   =    -921.02283733 Ry
     estimated scf accuracy    <          3.9E-10 Ry

     iteration # 21     ecut=    50.00 Ry     beta= 0.70
     Davidson diagonalization with overlap
     ethr =  3.50E-13,  avg # of iterations =  4.5

     total cpu time spent up to now is       21.0 secs

     total energy              =    -921.02283733 Ry
     Harris-Foulkes estimate   =    -921.02283733 Ry
     estimated scf accuracy    <          1.6E-10 Ry

     iteration # 22     ecut=    50.00 Ry     beta= 0.70
     Davidson diagonalization with overlap
     ethr =  1.39E-13,  avg # of iterations =  1.0

     total cpu time spent up to now is       21.3 secs

     total energy              =    -921.02283733 Ry
     Harris-Foulkes estimate   =    -921.02283733 Ry
     estimated scf accuracy    <          1.1E-10 Ry

     iteration # 23     ecut=    50.00 Ry     beta= 0.70
     Davidson diagonalization with overlap
     ethr =  1.00E-13,  avg # of iterations =  4.0

     total cpu time spent up to now is       21.8 secs

     End of self-consistent calculation

          k = 0.0000 0.0000 0.0000 (  5957 PWs)   bands (ev):

   -57.3458 -57.3436 -57.3263 -57.3225 -31.5262 -31.5064 -31.4864 -31.4691
   -31.4666 -31.3978 -31.3481 -31.3396 -31.3355 -31.2767 -31.2752 -31.2718
   -11.5865 -11.3977 -10.3222 -10.2228  -9.9012  -9.7087  -9.2165  -9.1841
    -9.0704  -8.9936   1.8905   1.9028   1.9510   2.0148   2.3782   2.6697
     3.1170   3.4469   3.7503   3.9020   4.1314   4.4327   4.5009   4.5977
     4.6645   4.7615   4.8350   5.0106   5.0537   5.0962   5.2840   5.3214
     5.5349   5.6035   5.7059   5.7998   5.9693   5.9799   6.0213   6.3304

          k = 0.0000 0.2918 0.0000 (  5937 PWs)   bands (ev):

   -57.3441 -57.3392 -57.3236 -57.3220 -31.5312 -31.5144 -31.5011 -31.4813
   -31.4681 -31.3947 -31.3490 -31.3389 -31.3359 -31.2758 -31.2757 -31.2719
   -11.3921 -11.2292 -10.2001 -10.1527  -9.8460  -9.6719  -9.2061  -9.1706
    -8.8829  -8.8475   1.7188   1.7317   1.7837   1.7911   1.8538   1.9761
     2.3681   2.5703   2.5722   2.8988   3.3226   3.4915   3.6447   4.5533
     4.5615   4.5817   4.8705   4.9024   5.2115   5.5765   5.5937   5.7402
     5.8092   6.1836   6.1930   6.2238   6.2587   6.3842   6.6683   6.9054

          k = 0.3458 0.0000 0.0000 (  5964 PWs)   bands (ev):

   -57.3462 -57.3366 -57.3278 -57.3236 -31.5161 -31.5000 -31.4795 -31.4691
   -31.4663 -31.4591 -31.4282 -31.4179 -31.3322 -31.3290 -31.3027 -31.2779
   -10.8779 -10.6716 -10.0197  -9.9367  -9.9035  -9.6605  -9.1876  -9.1714
    -9.1190  -9.0480   1.3615   1.4792   1.8599   2.3390   2.5127   2.5882
     2.7538   3.0661   3.2231   3.6929   3.8792   3.9739   4.2915   4.3917
     4.4740   4.5034   4.7305   4.7541   4.8450   5.2893   5.4232   5.4450
     5.4626   5.5376   5.6249   5.6928   5.6973   6.0606   6.1799   6.5864

          k = 0.3458 0.2918 0.0000 (  5946 PWs)   bands (ev):

   -57.3395 -57.3331 -57.3260 -57.3256 -31.5209 -31.5082 -31.4908 -31.4785
   -31.4716 -31.4591 -31.4275 -31.4164 -31.3313 -31.3295 -31.3033 -31.2775
   -10.7180 -10.5491  -9.9829  -9.9282  -9.7820  -9.6203  -9.0760  -9.0493
    -8.9188  -8.8974   1.2771   1.3877   1.6849   2.0097   2.0708   2.1267
     2.4322   2.4631   2.5607   2.6884   2.8456   3.1648   3.5954   3.7793
     4.0043   4.1328   4.3148   4.3874   4.7425   5.1225   5.5543   5.7033
     5.9484   6.0456   6.3517   6.3761   6.5116   6.5696   6.7969   6.8897

     highest occupied level (ev):     6.9054

!    total energy              =    -921.02283733 Ry
     Harris-Foulkes estimate   =    -921.02283733 Ry
     estimated scf accuracy    <          6.3E-11 Ry

     The total energy is the sum of the following terms:

     one-electron contribution =    -480.55433954 Ry
     hartree contribution      =     290.58075930 Ry
     xc contribution           =    -174.85730449 Ry
     ewald contribution        =    -556.19195260 Ry

     convergence has been achieved in  23 iterations

     Forces acting on atoms (cartesian axes, Ry/au):

     atom    1 type  1   force =     0.00000000    0.00072011   -0.01127993
     atom    2 type  1   force =     0.00000000   -0.00072011    0.01127993
     atom    3 type  1   force =     0.00000000   -0.00072011   -0.01127993
     atom    4 type  1   force =    -0.00000000    0.00072011    0.01127993
     atom    5 type  2   force =    -0.00000000   -0.00506073   -0.00336727
     atom    6 type  2   force =     0.00000000    0.00506073    0.00336727
     atom    7 type  2   force =     0.00000000    0.00506073   -0.00336727
     atom    8 type  2   force =     0.00000000   -0.00506073    0.00336727
     atom    9 type  2   force =    -0.00000000    0.00570306    0.00070583
     atom   10 type  2   force =    -0.00000000   -0.00570306   -0.00070583
     atom   11 type  2   force =     0.00000000   -0.00570306    0.00070583
     atom   12 type  2   force =     0.00000000    0.00768927    0.00000000
     atom   13 type  2   force =     0.00000000   -0.00768927   -0.00000000
     atom   14 type  2   force =     0.00000000    0.00570306   -0.00070583

     Total force =     0.030152     Total SCF correction =     0.000014


     Computing stress (Cartesian axis) and pressure

          total   stress  (Ry/bohr**3)                   (kbar)     P= -311.18
  -0.00188688   0.00000000   0.00000000       -277.57      0.00      0.00
   0.00000000  -0.00252332   0.00000000          0.00   -371.19      0.00
   0.00000000   0.00000000  -0.00193580          0.00      0.00   -284.77


     Writing output data file v2o5.save/

     init_run     :      0.80s CPU      0.83s WALL (       2 calls)
     electrons    :     19.42s CPU     19.87s WALL (       2 calls)
     forces       :      0.48s CPU      0.48s WALL (       2 calls)
     stress       :      0.84s CPU      0.84s WALL (       2 calls)

     Called by init_run:
     wfcinit      :      0.36s CPU      0.37s WALL (       2 calls)
     potinit      :      0.04s CPU      0.05s WALL (       2 calls)
     hinit0       :      0.37s CPU      0.38s WALL (       2 calls)

     Called by electrons:
     c_bands      :     18.57s CPU     18.99s WALL (      36 calls)
     sum_band     :      0.69s CPU      0.70s WALL (      36 calls)
     v_of_rho     :      0.12s CPU      0.13s WALL (      37 calls)
     mix_rho      :      0.03s CPU      0.04s WALL (      36 calls)

     Called by c_bands:
     init_us_2    :      0.08s CPU      0.08s WALL (     312 calls)
     cegterg      :     18.09s CPU     18.50s WALL (     144 calls)

     Called by sum_band:

     Called by *egterg:
     h_psi        :      7.71s CPU      7.96s WALL (     742 calls)
     g_psi        :      0.04s CPU      0.04s WALL (     590 calls)
     cdiaghg      :      6.22s CPU      6.34s WALL (     730 calls)

     Called by h_psi:
     h_psi:pot    :      7.69s CPU      7.95s WALL (     742 calls)
     h_psi:calbec :      2.20s CPU      2.32s WALL (     742 calls)
     vloc_psi     :      3.55s CPU      3.68s WALL (     742 calls)
     add_vuspsi   :      1.94s CPU      1.95s WALL (     742 calls)

     General routines
     calbec       :      2.41s CPU      2.54s WALL (     782 calls)
     fft          :      0.10s CPU      0.11s WALL (     419 calls)
     ffts         :      0.01s CPU      0.01s WALL (      36 calls)
     fftw         :      3.79s CPU      3.92s WALL (   56804 calls)

     Parallel routines
     fft_scatt_xy :      0.34s CPU      0.35s WALL (   57259 calls)
     fft_scatt_yz :      1.58s CPU      1.64s WALL (   57259 calls)

     PWSCF        :     21.83s CPU     22.38s WALL


   This run was terminated on:  16:29:23  27Oct2024            

=------------------------------------------------------------------------------=
   JOB DONE.
=------------------------------------------------------------------------------=
