
     Program PWSCF v.6.4.1 starts on 11Jun2024 at 20:41: 2 

     This program is part of the open-source Quantum ESPRESSO suite
     for quantum simulation of materials; please cite
         "P. Giannozzi et al., J. Phys.:Condens. Matter 21 395502 (2009);
         "P. Giannozzi et al., J. Phys.:Condens. Matter 29 465901 (2017);
          URL http://www.quantum-espresso.org", 
     in publications or presentations arising from this work. More details at
     http://www.quantum-espresso.org/quote

     Parallel version (MPI), running on    32 processors

     MPI processes distributed on     1 nodes
     R & G space division:  proc/nbgrp/npool/nimage =      32
     Reading input from v16o39.rlx.in
Warning: card &CELL ignored
Warning: card     CELL_DYNAMICS  = "BFGS" ignored
Warning: card / ignored

     Current dimensions of program PWSCF are:
     Max number of different atomic species (ntypx) = 10
     Max number of k-points (npk) =  40000
     Max angular momentum in pseudopotentials (lmaxx) =  3
               file V.pbe-spnl-kjpaw_psl.1.0.0.UPF: wavefunction(s)  3P 3D renormalized
               file O.pbe-n-kjpaw_psl.1.0.0.UPF: wavefunction(s)  2S 2P renormalized

     -------------------------------------------------
     Parameters for Dispersion (Grimme-D2) Correction:
     -------------------------------------------------
       atom      VdW radius       C_6     

        V          2.952        374.666
        O          2.536         24.284

     Subspace diagonalization in iterative solution of the eigenvalue problem:
     one sub-group per band group will be used
     ELPA distributed-memory algorithm (size of sub-group:  4*  4 procs)


     Parallelization info
     --------------------
     sticks:   dense  smooth     PW     G-vecs:    dense   smooth      PW
     Min         358     143     38                42576    10773    1516
     Max         359     144     39                42583    10782    1523
     Sum       11479    4589   1239              1362541   344825   48629



     bravais-lattice index     =            8
     lattice parameter (alat)  =      13.3968  a.u.
     unit-cell volume          =    4868.8223 (a.u.)^3
     number of atoms/cell      =           55
     number of atomic types    =            2
     number of electrons       =       442.00
     number of Kohn-Sham states=          265
     kinetic-energy cutoff     =      65.0000  Ry
     charge density cutoff     =     650.0000  Ry
     convergence threshold     =      1.0E-09
     mixing beta               =       0.7000
     number of iterations used =            8  plain     mixing
     Exchange-correlation      = SLA PW PBX PBC ( 1  4  3  4 0 0)
     nstep                     =          500


     celldm(1)=  13.396828  celldm(2)=   1.235512  celldm(3)=   1.638970
     celldm(4)=   0.000000  celldm(5)=   0.000000  celldm(6)=   0.000000

     crystal axes: (cart. coord. in units of alat)
               a(1) = (   1.000000   0.000000   0.000000 )  
               a(2) = (   0.000000   1.235512   0.000000 )  
               a(3) = (   0.000000   0.000000   1.638970 )  

     reciprocal axes: (cart. coord. in units 2 pi/alat)
               b(1) = (  1.000000  0.000000  0.000000 )  
               b(2) = (  0.000000  0.809381  0.000000 )  
               b(3) = (  0.000000  0.000000  0.610139 )  


     PseudoPot. # 1 for V  read from file:
     /home/mpicuntureo/pseudos/V.pbe-spnl-kjpaw_psl.1.0.0.UPF
     MD5 check sum: 069c5df6a0a9f40a694a86a6cab52b89
     Pseudo is Projector augmented-wave + core cor, Zval = 13.0
     Generated using "atomic" code by A. Dal Corso v.6.3
     Shape of augmentation charge: PSQ
     Using radial grid of 1181 points,  6 beta functions with: 
                l(1) =   0
                l(2) =   0
                l(3) =   1
                l(4) =   1
                l(5) =   2
                l(6) =   2
     Q(r) pseudized with 0 coefficients 


     PseudoPot. # 2 for O  read from file:
     /home/mpicuntureo/pseudos/O.pbe-n-kjpaw_psl.1.0.0.UPF
     MD5 check sum: e99d9cef9b487d1ca56f5b95ecd0fd7a
     Pseudo is Projector augmented-wave + core cor, Zval =  6.0
     Generated using "atomic" code by A. Dal Corso v.6.3
     Shape of augmentation charge: PSQ
     Using radial grid of 1095 points,  4 beta functions with: 
                l(1) =   0
                l(2) =   0
                l(3) =   1
                l(4) =   1
     Q(r) pseudized with 0 coefficients 


     atomic species   valence    mass     pseudopotential
        V             13.00    50.94150     V ( 1.00)
        O              6.00    15.99940     O ( 1.00)

      4 Sym. Ops. (no inversion) found



   Cartesian axes

     site n.     atom                  positions (alat units)
         1           V   tau(   1) = (   0.0000000   0.2297890   1.0636570  )
         2           V   tau(   2) = (   0.2480917   0.3847660   1.3944181  )
         3           V   tau(   3) = (   0.2480917   0.3847660   0.2445518  )
         4           V   tau(   4) = (   0.0000000   0.2297890   0.5753129  )
         5           O   tau(   5) = (   0.2481359   0.3044025   1.1163983  )
         6           O   tau(   6) = (   0.0000000   0.3045770   1.3455405  )
         7           O   tau(   7) = (   0.0000000   0.3045770   0.2934294  )
         8           O   tau(   8) = (   0.2481359   0.3044025   0.5225717  )
         9           O   tau(   9) = (   0.0000000   0.0044307   0.5713873  )
        10           O   tau(  10) = (   0.2385383   0.6103710   0.2498001  )
        11           O   tau(  11) = (   0.2385383   0.6103710   1.3891698  )
        12           O   tau(  12) = (   0.2524101   0.3255632   0.0000000  )
        13           O   tau(  13) = (   0.0000000   0.2910271   0.8194850  )
        14           O   tau(  14) = (   0.0000000   0.0044307   1.0675827  )
        15           V   tau(  15) = (   0.0000000   0.8693510   1.0572353  )
        16           V   tau(  16) = (   0.2467811   0.9962590   1.3989413  )
        17           V   tau(  17) = (   0.2467811   0.9962590   0.2400286  )
        18           V   tau(  18) = (   0.0000000   0.8693510   0.5817347  )
        19           O   tau(  19) = (   0.2647348   0.9306349   1.1022737  )
        20           O   tau(  20) = (   0.0000000   0.9398514   1.3292923  )
        21           O   tau(  21) = (   0.0000000   0.9398514   0.3096776  )
        22           O   tau(  22) = (   0.2647348   0.9306349   0.5366963  )
        23           O   tau(  23) = (   0.0000000   0.6454170   0.5908164  )
        24           O   tau(  24) = (   0.2678038   1.2193540   0.2358853  )
        25           O   tau(  25) = (   0.2678038   1.2193540   1.4030846  )
        26           O   tau(  26) = (   0.2228185   0.9326842   0.0000000  )
        27           O   tau(  27) = (   0.0000000   0.9442076   0.8194850  )
        28           O   tau(  28) = (   0.0000000   0.6454170   1.0481535  )
        29           V   tau(  29) = (   0.5000000   0.2375368   1.0613593  )
        30           V   tau(  30) = (   0.7519083   0.3847660   1.3944181  )
        31           V   tau(  31) = (   0.7519083   0.3847660   0.2445518  )
        32           V   tau(  32) = (   0.5000000   0.2375368   0.5776106  )
        33           O   tau(  33) = (   0.7518641   0.3044025   1.1163983  )
        34           O   tau(  34) = (   0.5000000   0.3203417   1.3403825  )
        35           O   tau(  35) = (   0.5000000   0.3203417   0.2985874  )
        36           O   tau(  36) = (   0.7518641   0.3044025   0.5225717  )
        37           O   tau(  37) = (   0.5000000   0.0124490   0.5857329  )
        38           O   tau(  38) = (   0.7614617   0.6103710   0.2498001  )
        39           O   tau(  39) = (   0.7614617   0.6103710   1.3891698  )
        40           O   tau(  40) = (   0.7475899   0.3255632   0.0000000  )
        41           O   tau(  41) = (   0.5000000   0.3053542   0.8194850  )
        42           O   tau(  42) = (   0.5000000   0.0124490   1.0532370  )
        43           V   tau(  43) = (   0.5000000   0.8366627   1.1213083  )
        44           V   tau(  44) = (   0.7532189   0.9962590   1.3989413  )
        45           V   tau(  45) = (   0.7532189   0.9962590   0.2400286  )
        46           V   tau(  46) = (   0.5000000   0.8366627   0.5176616  )
        47           O   tau(  47) = (   0.7352652   0.9306349   1.1022737  )
        48           O   tau(  48) = (   0.5000000   0.8948797   1.3761592  )
        49           O   tau(  49) = (   0.5000000   0.8948797   0.2628107  )
        50           O   tau(  50) = (   0.7352652   0.9306349   0.5366963  )
        51           O   tau(  51) = (   0.5000000   0.6216600   0.5830825  )
        52           O   tau(  52) = (   0.7321962   1.2193540   0.2358853  )
        53           O   tau(  53) = (   0.7321962   1.2193540   1.4030846  )
        54           O   tau(  54) = (   0.7771815   0.9326842   0.0000000  )
        55           O   tau(  55) = (   0.5000000   0.6216600   1.0558874  )

     number of k points=     8  gaussian smearing, width (Ry)=  0.0500
                       cart. coord. in units 2pi/alat
        k(    1) = (   0.0000000   0.0000000   0.0000000), wk =   0.2500000
        k(    2) = (   0.0000000   0.0000000  -0.3050697), wk =   0.2500000
        k(    3) = (   0.0000000  -0.4046905   0.0000000), wk =   0.2500000
        k(    4) = (   0.0000000  -0.4046905  -0.3050697), wk =   0.2500000
        k(    5) = (  -0.5000000   0.0000000   0.0000000), wk =   0.2500000
        k(    6) = (  -0.5000000   0.0000000  -0.3050697), wk =   0.2500000
        k(    7) = (  -0.5000000  -0.4046905   0.0000000), wk =   0.2500000
        k(    8) = (  -0.5000000  -0.4046905  -0.3050697), wk =   0.2500000

     Dense  grid:  1362541 G-vectors     FFT dimensions: ( 120, 135, 180)

     Smooth grid:   344825 G-vectors     FFT dimensions: (  72,  90, 120)

     Estimated max dynamical RAM per process >     322.74 MB

     Estimated total dynamical RAM >      10.09 GB

     Check: negative core charge=   -0.000001

     Initial potential from superposition of free atoms

     starting charge  441.98541, renormalised to  442.00000
     Starting wfcs are  316 randomized atomic wfcs
     Checking if some PAW data can be deallocated... 

     total cpu time spent up to now is       96.5 secs

     Self-consistent Calculation

     iteration #  1     ecut=    65.00 Ry     beta= 0.70
     Davidson diagonalization with overlap
     ethr =  1.00E-02,  avg # of iterations =  2.0

     total cpu time spent up to now is      321.3 secs

     total energy              =   -5032.15318906 Ry
     Harris-Foulkes estimate   =   -5058.22413959 Ry
     estimated scf accuracy    <      32.16546744 Ry

     iteration #  2     ecut=    65.00 Ry     beta= 0.70
     Davidson diagonalization with overlap
     ethr =  7.28E-03,  avg # of iterations =  4.2

     total cpu time spent up to now is      867.5 secs

     total energy              =   -4990.46511181 Ry
     Harris-Foulkes estimate   =   -5131.58630104 Ry
     estimated scf accuracy    <     662.26201201 Ry

     iteration #  3     ecut=    65.00 Ry     beta= 0.70
     Davidson diagonalization with overlap
     ethr =  7.28E-03,  avg # of iterations =  5.0

     total cpu time spent up to now is     1404.4 secs

     total energy              =   -5050.91416204 Ry
     Harris-Foulkes estimate   =   -5056.29654979 Ry
     estimated scf accuracy    <      16.89220194 Ry

     iteration #  4     ecut=    65.00 Ry     beta= 0.70
     Davidson diagonalization with overlap
     ethr =  3.82E-03,  avg # of iterations =  2.4

     negative rho (up, down):  1.087E-05 0.000E+00

     total cpu time spent up to now is     1595.8 secs

     total energy              =   -5052.08484030 Ry
     Harris-Foulkes estimate   =   -5053.81231580 Ry
     estimated scf accuracy    <       7.28570731 Ry

     iteration #  5     ecut=    65.00 Ry     beta= 0.70
     Davidson diagonalization with overlap
     ethr =  1.65E-03,  avg # of iterations =  6.4

     negative rho (up, down):  2.100E-04 0.000E+00

     total cpu time spent up to now is     1915.8 secs

     total energy              =   -5053.41167512 Ry
     Harris-Foulkes estimate   =   -5054.09312721 Ry
     estimated scf accuracy    <       3.52162211 Ry

     iteration #  6     ecut=    65.00 Ry     beta= 0.70
     Davidson diagonalization with overlap
     ethr =  7.97E-04,  avg # of iterations =  2.6

     negative rho (up, down):  4.902E-04 0.000E+00

     total cpu time spent up to now is     2125.2 secs

     total energy              =   -5053.33387014 Ry
     Harris-Foulkes estimate   =   -5053.56346539 Ry
     estimated scf accuracy    <       1.67760523 Ry

     iteration #  7     ecut=    65.00 Ry     beta= 0.70
     Davidson diagonalization with overlap
     ethr =  3.80E-04,  avg # of iterations =  6.8

     negative rho (up, down):  1.390E-03 0.000E+00

     total cpu time spent up to now is     2376.9 secs

     total energy              =   -5053.30998000 Ry
     Harris-Foulkes estimate   =   -5053.56508381 Ry
     estimated scf accuracy    <       1.39953347 Ry

     iteration #  8     ecut=    65.00 Ry     beta= 0.70
     Davidson diagonalization with overlap
     ethr =  3.17E-04,  avg # of iterations =  5.6

     negative rho (up, down):  2.014E-03 0.000E+00

     total cpu time spent up to now is     2604.9 secs

     total energy              =   -5053.44634388 Ry
     Harris-Foulkes estimate   =   -5053.52705967 Ry
     estimated scf accuracy    <       0.63251175 Ry

     iteration #  9     ecut=    65.00 Ry     beta= 0.70
     Davidson diagonalization with overlap
     ethr =  1.43E-04,  avg # of iterations =  7.4

     negative rho (up, down):  2.190E-03 0.000E+00

     total cpu time spent up to now is     2948.0 secs

     total energy              =   -5053.50072826 Ry
     Harris-Foulkes estimate   =   -5053.60690549 Ry
     estimated scf accuracy    <       1.01592332 Ry

     iteration # 10     ecut=    65.00 Ry     beta= 0.70
     Davidson diagonalization with overlap
     ethr =  1.43E-04,  avg # of iterations =  1.0

     negative rho (up, down):  1.993E-03 0.000E+00

     total cpu time spent up to now is     3116.8 secs

     total energy              =   -5053.40980903 Ry
     Harris-Foulkes estimate   =   -5053.52870219 Ry
     estimated scf accuracy    <       0.54082437 Ry

     iteration # 11     ecut=    65.00 Ry     beta= 0.70
     Davidson diagonalization with overlap
     ethr =  1.22E-04,  avg # of iterations =  3.5

     negative rho (up, down):  2.187E-03 0.000E+00

     total cpu time spent up to now is     3316.6 secs

     total energy              =   -5053.42460463 Ry
     Harris-Foulkes estimate   =   -5053.44940282 Ry
     estimated scf accuracy    <       0.10208033 Ry

     iteration # 12     ecut=    65.00 Ry     beta= 0.70
     Davidson diagonalization with overlap
     ethr =  2.31E-05,  avg # of iterations =  6.5

     negative rho (up, down):  2.365E-03 0.000E+00

     total cpu time spent up to now is     3728.0 secs

     total energy              =   -5053.45873403 Ry
     Harris-Foulkes estimate   =   -5053.47151780 Ry
     estimated scf accuracy    <       0.04567679 Ry

     iteration # 13     ecut=    65.00 Ry     beta= 0.70
     Davidson diagonalization with overlap
     ethr =  1.03E-05,  avg # of iterations =  2.2

     negative rho (up, down):  2.517E-03 0.000E+00

     total cpu time spent up to now is     3923.8 secs

     total energy              =   -5053.46337920 Ry
     Harris-Foulkes estimate   =   -5053.46517236 Ry
     estimated scf accuracy    <       0.00721618 Ry

     iteration # 14     ecut=    65.00 Ry     beta= 0.70
     Davidson diagonalization with overlap
     ethr =  1.63E-06,  avg # of iterations =  5.8

     negative rho (up, down):  2.504E-03 0.000E+00

     total cpu time spent up to now is     4337.0 secs

     total energy              =   -5053.46549592 Ry
     Harris-Foulkes estimate   =   -5053.46812371 Ry
     estimated scf accuracy    <       0.01021312 Ry

     iteration # 15     ecut=    65.00 Ry     beta= 0.70
     Davidson diagonalization with overlap
     ethr =  1.63E-06,  avg # of iterations =  2.4

     negative rho (up, down):  2.565E-03 0.000E+00

     total cpu time spent up to now is     4524.3 secs

     total energy              =   -5053.46599631 Ry
     Harris-Foulkes estimate   =   -5053.46689109 Ry
     estimated scf accuracy    <       0.00588715 Ry

     iteration # 16     ecut=    65.00 Ry     beta= 0.70
     Davidson diagonalization with overlap
     ethr =  1.33E-06,  avg # of iterations =  3.6

     negative rho (up, down):  2.596E-03 0.000E+00

     total cpu time spent up to now is     4728.4 secs

     total energy              =   -5053.46663237 Ry
     Harris-Foulkes estimate   =   -5053.46680278 Ry
     estimated scf accuracy    <       0.00089281 Ry

     iteration # 17     ecut=    65.00 Ry     beta= 0.70
     Davidson diagonalization with overlap
     ethr =  2.02E-07,  avg # of iterations =  5.0

     negative rho (up, down):  2.602E-03 0.000E+00

     total cpu time spent up to now is     5066.1 secs

     total energy              =   -5053.46684870 Ry
     Harris-Foulkes estimate   =   -5053.46699094 Ry
     estimated scf accuracy    <       0.00072297 Ry

     iteration # 18     ecut=    65.00 Ry     beta= 0.70
     Davidson diagonalization with overlap
     ethr =  1.64E-07,  avg # of iterations =  4.8

     negative rho (up, down):  2.626E-03 0.000E+00

     total cpu time spent up to now is     5276.6 secs

     total energy              =   -5053.46688848 Ry
     Harris-Foulkes estimate   =   -5053.46694497 Ry
     estimated scf accuracy    <       0.00030797 Ry

     iteration # 19     ecut=    65.00 Ry     beta= 0.70
     Davidson diagonalization with overlap
     ethr =  6.97E-08,  avg # of iterations =  4.5

     negative rho (up, down):  2.640E-03 0.000E+00

     total cpu time spent up to now is     5494.5 secs

     total energy              =   -5053.46691439 Ry
     Harris-Foulkes estimate   =   -5053.46693736 Ry
     estimated scf accuracy    <       0.00015457 Ry

     iteration # 20     ecut=    65.00 Ry     beta= 0.70
     Davidson diagonalization with overlap
     ethr =  3.50E-08,  avg # of iterations =  3.9

     negative rho (up, down):  2.652E-03 0.000E+00

     total cpu time spent up to now is     5692.7 secs

     total energy              =   -5053.46692237 Ry
     Harris-Foulkes estimate   =   -5053.46693531 Ry
     estimated scf accuracy    <       0.00009369 Ry

     iteration # 21     ecut=    65.00 Ry     beta= 0.70
     Davidson diagonalization with overlap
     ethr =  2.12E-08,  avg # of iterations =  4.4

     negative rho (up, down):  2.645E-03 0.000E+00

     total cpu time spent up to now is     5906.0 secs

     total energy              =   -5053.46692143 Ry
     Harris-Foulkes estimate   =   -5053.46693224 Ry
     estimated scf accuracy    <       0.00004830 Ry

     iteration # 22     ecut=    65.00 Ry     beta= 0.70
     Davidson diagonalization with overlap
     ethr =  1.09E-08,  avg # of iterations =  5.4

     negative rho (up, down):  2.648E-03 0.000E+00

     total cpu time spent up to now is     6147.0 secs

     total energy              =   -5053.46692630 Ry
     Harris-Foulkes estimate   =   -5053.46693156 Ry
     estimated scf accuracy    <       0.00002284 Ry

     iteration # 23     ecut=    65.00 Ry     beta= 0.70
     Davidson diagonalization with overlap
     ethr =  5.17E-09,  avg # of iterations =  5.5

     negative rho (up, down):  2.651E-03 0.000E+00

     total cpu time spent up to now is     6365.7 secs

     total energy              =   -5053.46692880 Ry
     Harris-Foulkes estimate   =   -5053.46692975 Ry
     estimated scf accuracy    <       0.00000238 Ry

     iteration # 24     ecut=    65.00 Ry     beta= 0.70
     Davidson diagonalization with overlap
     ethr =  5.38E-10,  avg # of iterations =  5.0

     negative rho (up, down):  2.651E-03 0.000E+00

     total cpu time spent up to now is     6871.1 secs

     total energy              =   -5053.46692874 Ry
     Harris-Foulkes estimate   =   -5053.46693342 Ry
     estimated scf accuracy    <       0.00002300 Ry

     iteration # 25     ecut=    65.00 Ry     beta= 0.70
     Davidson diagonalization with overlap
     ethr =  5.38E-10,  avg # of iterations =  5.0

     negative rho (up, down):  2.651E-03 0.000E+00

     total cpu time spent up to now is     7261.1 secs

     total energy              =   -5053.46693057 Ry
     Harris-Foulkes estimate   =   -5053.46693149 Ry
     estimated scf accuracy    <       0.00000546 Ry

     iteration # 26     ecut=    65.00 Ry     beta= 0.70
     Davidson diagonalization with overlap
     ethr =  5.38E-10,  avg # of iterations =  3.4

     negative rho (up, down):  2.651E-03 0.000E+00

     total cpu time spent up to now is     7464.8 secs

     total energy              =   -5053.46693085 Ry
     Harris-Foulkes estimate   =   -5053.46693097 Ry
     estimated scf accuracy    <       0.00000085 Ry

     iteration # 27     ecut=    65.00 Ry     beta= 0.70
     Davidson diagonalization with overlap
     ethr =  1.93E-10,  avg # of iterations =  4.6

     negative rho (up, down):  2.650E-03 0.000E+00

     total cpu time spent up to now is     7736.8 secs

     total energy              =   -5053.46693101 Ry
     Harris-Foulkes estimate   =   -5053.46693105 Ry
     estimated scf accuracy    <       0.00000027 Ry

     iteration # 28     ecut=    65.00 Ry     beta= 0.70
     Davidson diagonalization with overlap
     ethr =  6.05E-11,  avg # of iterations =  1.9

     negative rho (up, down):  2.650E-03 0.000E+00

     total cpu time spent up to now is     7927.2 secs

     total energy              =   -5053.46693102 Ry
     Harris-Foulkes estimate   =   -5053.46693104 Ry
     estimated scf accuracy    <       0.00000009 Ry

     iteration # 29     ecut=    65.00 Ry     beta= 0.70
     Davidson diagonalization with overlap
     ethr =  2.09E-11,  avg # of iterations =  4.2

     negative rho (up, down):  2.650E-03 0.000E+00

     total cpu time spent up to now is     8261.2 secs

     total energy              =   -5053.46693102 Ry
     Harris-Foulkes estimate   =   -5053.46693106 Ry
     estimated scf accuracy    <       0.00000020 Ry

     iteration # 30     ecut=    65.00 Ry     beta= 0.70
     Davidson diagonalization with overlap
     ethr =  2.09E-11,  avg # of iterations =  5.8

     negative rho (up, down):  2.650E-03 0.000E+00

     total cpu time spent up to now is     8480.8 secs

     total energy              =   -5053.46693104 Ry
     Harris-Foulkes estimate   =   -5053.46693104 Ry
     estimated scf accuracy    <       0.00000005 Ry

     iteration # 31     ecut=    65.00 Ry     beta= 0.70
     Davidson diagonalization with overlap
     ethr =  1.07E-11,  avg # of iterations =  4.6

     negative rho (up, down):  2.650E-03 0.000E+00

     total cpu time spent up to now is     8798.2 secs

     total energy              =   -5053.46693104 Ry
     Harris-Foulkes estimate   =   -5053.46693106 Ry
     estimated scf accuracy    <       0.00000007 Ry

     iteration # 32     ecut=    65.00 Ry     beta= 0.70
     Davidson diagonalization with overlap
     ethr =  1.07E-11,  avg # of iterations =  4.5

     negative rho (up, down):  2.650E-03 0.000E+00

     total cpu time spent up to now is     9007.3 secs

     total energy              =   -5053.46693105 Ry
     Harris-Foulkes estimate   =   -5053.46693105 Ry
     estimated scf accuracy    <       0.00000002 Ry

     iteration # 33     ecut=    65.00 Ry     beta= 0.70
     Davidson diagonalization with overlap
     ethr =  3.58E-12,  avg # of iterations =  4.5

     negative rho (up, down):  2.650E-03 0.000E+00

     total cpu time spent up to now is     9297.6 secs

     total energy              =   -5053.46693105 Ry
     Harris-Foulkes estimate   =   -5053.46693105 Ry
     estimated scf accuracy    <          2.5E-09 Ry

     iteration # 34     ecut=    65.00 Ry     beta= 0.70
     Davidson diagonalization with overlap
     ethr =  5.69E-13,  avg # of iterations =  5.6

     negative rho (up, down):  2.650E-03 0.000E+00

     total cpu time spent up to now is     9533.9 secs

     End of self-consistent calculation

          k = 0.0000 0.0000 0.0000 ( 43117 PWs)   bands (ev):

   -59.9700 -59.9700 -59.8289 -59.8271 -59.8267 -59.8249 -59.7303 -59.7278
   -59.6897 -59.6881 -59.6866 -59.6849 -59.6648 -59.6631 -59.6391 -59.6371
   -34.0622 -34.0609 -33.9227 -33.9203 -33.9130 -33.9105 -33.8621 -33.8575
   -33.8442 -33.8428 -33.8013 -33.7971 -33.7200 -33.7158 -33.7131 -33.7096
   -33.7071 -33.7026 -33.6965 -33.6932 -33.6760 -33.6727 -33.6589 -33.6558
   -33.6554 -33.6484 -33.6185 -33.6158 -33.6012 -33.5921 -33.5867 -33.5753
   -33.5555 -33.5521 -33.5444 -33.5424 -33.5242 -33.5201 -33.5124 -33.4959
   -33.4908 -33.4817 -33.4779 -33.4687 -33.4684 -33.4576 -33.4337 -33.4311
   -13.6595 -13.5679 -13.2438 -13.1258 -13.0190 -12.9630 -12.6705 -12.6475
   -12.6153 -12.4865 -12.4241 -12.3190 -12.3056 -12.2598 -12.2443 -12.1972
   -12.1556 -12.1423 -12.0862 -12.0169 -11.9791 -11.9167 -11.9132 -11.8337
   -11.8174 -11.7953 -11.7873 -11.7419 -11.7262 -11.6787 -11.6780 -11.5775
   -11.5578 -11.5545 -11.5469 -11.5133 -11.4824 -11.4672 -11.4401  -0.8575
    -0.7820  -0.6046  -0.4737  -0.3737  -0.3694  -0.3312  -0.2984  -0.2938
    -0.2192  -0.2081  -0.1470  -0.1405  -0.1029  -0.0930  -0.0775  -0.0690
    -0.0003   0.0502   0.0660   0.0780   0.2068   0.2166   0.2791   0.2904
     0.3800   0.4234   0.4492   0.5212   0.5340   0.6123   0.6851   0.6926
     0.7888   0.7946   0.8592   0.9585   1.0081   1.0114   1.0842   1.1098
     1.1120   1.2419   1.2704   1.2752   1.3465   1.3769   1.3984   1.3991
     1.4575   1.5314   1.6301   1.6421   1.6694   1.6825   1.7258   1.7470
     1.7829   1.8111   1.8189   1.9025   1.9277   1.9308   2.0108   2.0566
     2.0953   2.0977   2.1701   2.1939   2.2395   2.2850   2.3077   2.3337
     2.3449   2.3834   2.3846   2.4132   2.4642   2.4674   2.4806   2.4955
     2.5239   2.5939   2.6347   2.7550   2.7806   2.8374   2.8406   2.8652
     2.8744   2.9766   3.0055   3.0439   3.0653   3.0755   3.0795   3.1408
     3.1754   3.3047   3.3067   3.3207   3.3536   3.3542   3.3619   3.4071
     3.4422   3.4760   3.5205   3.7825   3.7932   3.8444   3.9110   3.9310
     3.9362   3.9854   4.0894   4.1162   5.7975   6.0175   6.1927   6.3274
     6.3656   6.5079   6.6021   6.6257   6.6718   6.9538   7.0012   7.0701
     7.3198   7.3210   7.3627   7.4778   7.4816   7.5341   7.5718   7.6090
     7.6179   7.6201   7.6726   7.6970   7.7291   7.8187   7.8272   7.8357
     7.8501   7.8571   7.9125   7.9441   7.9625   8.0436   8.0901   8.1915
     8.2474   8.2543   8.3460   8.3651   8.4633   8.4639   8.4649   8.4808
     8.5229

          k = 0.0000 0.0000-0.3051 ( 43116 PWs)   bands (ev):

   -59.9700 -59.9700 -59.8289 -59.8271 -59.8267 -59.8249 -59.7303 -59.7278
   -59.6897 -59.6881 -59.6866 -59.6849 -59.6647 -59.6631 -59.6391 -59.6371
   -34.0619 -34.0612 -33.9227 -33.9202 -33.9128 -33.9107 -33.8620 -33.8575
   -33.8437 -33.8433 -33.8002 -33.7983 -33.7158 -33.7153 -33.7136 -33.7097
   -33.7071 -33.7026 -33.6957 -33.6941 -33.6847 -33.6707 -33.6581 -33.6565
   -33.6563 -33.6486 -33.6184 -33.6159 -33.5956 -33.5861 -33.5799 -33.5763
   -33.5647 -33.5570 -33.5533 -33.5468 -33.5231 -33.5212 -33.4953 -33.4897
   -33.4891 -33.4824 -33.4771 -33.4759 -33.4698 -33.4605 -33.4332 -33.4316
   -13.6345 -13.5963 -13.1898 -13.1877 -13.0102 -12.9726 -12.6630 -12.6580
   -12.6107 -12.4943 -12.3908 -12.3160 -12.3086 -12.2625 -12.2569 -12.1603
   -12.1490 -12.1330 -12.1318 -12.0037 -12.0028 -11.9143 -11.9110 -11.8311
   -11.8209 -11.7971 -11.7889 -11.7422 -11.7262 -11.6808 -11.6788 -11.5666
   -11.5578 -11.5545 -11.5526 -11.5069 -11.4872 -11.4650 -11.4423  -0.8603
    -0.7853  -0.6270  -0.4433  -0.3818  -0.3638  -0.3399  -0.2989  -0.2984
    -0.2776  -0.1454  -0.1367  -0.1218  -0.1151  -0.0911  -0.0707  -0.0624
    -0.0406  -0.0285   0.0323   0.1744   0.1848   0.2024   0.3181   0.3996
     0.4210   0.4366   0.4451   0.5131   0.5215   0.5766   0.6169   0.6401
     0.6903   0.8128   0.8344   0.9612   1.0931   1.1218   1.1428   1.1681
     1.1696   1.2440   1.2607   1.2970   1.3555   1.3734   1.4075   1.4197
     1.4732   1.4875   1.4976   1.5119   1.5327   1.6023   1.7000   1.7190
     1.7523   1.7856   1.8155   1.9176   1.9925   2.1138   2.1327   2.1334
     2.1479   2.1610   2.2283   2.2500   2.2702   2.2729   2.3308   2.3449
     2.3629   2.3954   2.4042   2.4240   2.4700   2.4764   2.4818   2.5141
     2.5268   2.5734   2.6383   2.6617   2.6738   2.6902   2.6972   2.7856
     2.8092   2.9161   2.9278   2.9396   2.9871   3.0600   3.1615   3.1912
     3.2233   3.2669   3.3128   3.3165   3.4146   3.4344   3.4806   3.4873
     3.5195   3.5198   3.6370   3.6725   3.6901   3.7265   3.8274   3.9248
     4.0583   4.0718   4.0821   4.0867   5.8783   5.9133   6.2450   6.2651
     6.3730   6.5458   6.6401   6.6949   6.7119   6.9149   7.0537   7.0865
     7.2926   7.3013   7.3765   7.4114   7.5357   7.5654   7.5689   7.5903
     7.6059   7.6345   7.6345   7.7313   7.7433   7.7802   7.7942   7.8499
     7.8734   7.9011   7.9063   7.9073   7.9267   7.9444   8.0021   8.0758
     8.1562   8.3064   8.3147   8.3627   8.4303   8.4866   8.5234   8.5621
     8.7042

          k = 0.0000-0.4047 0.0000 ( 43054 PWs)   bands (ev):

   -59.9700 -59.9700 -59.8289 -59.8271 -59.8267 -59.8249 -59.7303 -59.7278
   -59.6897 -59.6881 -59.6866 -59.6849 -59.6648 -59.6631 -59.6391 -59.6371
   -34.0621 -34.0609 -33.9227 -33.9202 -33.9130 -33.9105 -33.8620 -33.8574
   -33.8441 -33.8428 -33.8012 -33.7970 -33.7200 -33.7158 -33.7132 -33.7096
   -33.7071 -33.7026 -33.6966 -33.6933 -33.6760 -33.6727 -33.6590 -33.6561
   -33.6552 -33.6484 -33.6185 -33.6158 -33.6011 -33.5920 -33.5867 -33.5753
   -33.5555 -33.5521 -33.5444 -33.5423 -33.5242 -33.5201 -33.5123 -33.4958
   -33.4907 -33.4818 -33.4778 -33.4687 -33.4684 -33.4576 -33.4337 -33.4311
   -13.6508 -13.5615 -13.2550 -13.1336 -13.0175 -12.9623 -12.6666 -12.6455
   -12.6111 -12.4856 -12.4195 -12.3126 -12.2999 -12.2677 -12.2481 -12.2044
   -12.1539 -12.1420 -12.0839 -12.0168 -11.9805 -11.9158 -11.9122 -11.8286
   -11.8133 -11.8010 -11.7896 -11.7275 -11.7249 -11.6783 -11.6683 -11.5759
   -11.5671 -11.5615 -11.5550 -11.5093 -11.5055 -11.4681 -11.4468  -0.8540
    -0.7796  -0.5914  -0.4656  -0.3650  -0.3596  -0.3232  -0.2902  -0.2155
    -0.1826  -0.1452  -0.1226  -0.1115  -0.1041  -0.0801  -0.0434  -0.0048
     0.0412   0.0585   0.0921   0.1150   0.2132   0.2225   0.2635   0.3305
     0.4354   0.5374   0.5749   0.6388   0.6656   0.7261   0.7548   0.8285
     0.8300   0.8329   0.8708   0.9025   0.9323   0.9396   0.9675   1.0357
     1.0507   1.0573   1.0725   1.1033   1.1846   1.1899   1.3210   1.3309
     1.3801   1.4575   1.4632   1.4969   1.6303   1.6322   1.6364   1.7044
     1.7719   1.7984   1.8003   1.8409   1.8567   1.9596   1.9700   1.9839
     2.0401   2.0416   2.0732   2.1064   2.1137   2.1399   2.2301   2.3584
     2.4404   2.4514   2.4792   2.4985   2.5341   2.6051   2.6398   2.6523
     2.6697   2.7622   2.7837   2.8051   2.8306   2.8709   2.8722   2.8951
     2.9489   2.9630   3.0071   3.0134   3.0331   3.0777   3.1567   3.2249
     3.2685   3.3217   3.3346   3.3533   3.3587   3.4247   3.4305   3.4743
     3.5052   3.5184   3.6045   3.6625   3.6651   3.7451   3.7704   3.8339
     3.8558   3.8850   3.9408   3.9410   5.8011   6.0250   6.1800   6.3302
     6.3583   6.5102   6.5991   6.6146   6.6404   6.9153   7.0019   7.0702
     7.3074   7.3361   7.3722   7.4811   7.5354   7.5669   7.5836   7.6079
     7.6185   7.6290   7.6852   7.7520   7.7532   7.7990   7.8363   7.8609
     7.8692   7.8828   7.8947   7.9091   7.9607   8.0726   8.1348   8.2133
     8.2474   8.3360   8.3417   8.3606   8.4344   8.4531   8.5305   8.5926
     8.6207

          k = 0.0000-0.4047-0.3051 ( 43112 PWs)   bands (ev):

   -59.9700 -59.9700 -59.8289 -59.8271 -59.8267 -59.8249 -59.7303 -59.7278
   -59.6897 -59.6881 -59.6866 -59.6849 -59.6647 -59.6631 -59.6391 -59.6371
   -34.0618 -34.0612 -33.9227 -33.9202 -33.9128 -33.9107 -33.8620 -33.8575
   -33.8437 -33.8434 -33.8002 -33.7982 -33.7158 -33.7153 -33.7137 -33.7097
   -33.7070 -33.7026 -33.6958 -33.6942 -33.6847 -33.6707 -33.6582 -33.6565
   -33.6562 -33.6486 -33.6184 -33.6159 -33.5956 -33.5861 -33.5800 -33.5763
   -33.5647 -33.5569 -33.5532 -33.5468 -33.5230 -33.5212 -33.4953 -33.4898
   -33.4891 -33.4825 -33.4771 -33.4759 -33.4698 -33.4605 -33.4332 -33.4317
   -13.6271 -13.5883 -13.1992 -13.1977 -13.0088 -12.9718 -12.6598 -12.6554
   -12.6065 -12.4934 -12.3890 -12.3101 -12.2984 -12.2695 -12.2645 -12.1586
   -12.1496 -12.1345 -12.1331 -12.0042 -12.0029 -11.9135 -11.9097 -11.8274
   -11.8155 -11.8030 -11.7909 -11.7275 -11.7250 -11.6800 -11.6665 -11.5760
   -11.5673 -11.5615 -11.5545 -11.5101 -11.5026 -11.4679 -11.4465  -0.8581
    -0.7815  -0.6194  -0.4297  -0.3687  -0.3555  -0.3277  -0.2968  -0.2090
    -0.2067  -0.1246  -0.1213  -0.0985  -0.0912  -0.0776  -0.0744  -0.0317
    -0.0102  -0.0101   0.1473   0.1995   0.2107   0.2428   0.2946   0.3159
     0.4456   0.4696   0.6557   0.6766   0.6811   0.6959   0.7175   0.7777
     0.8133   0.8478   0.8631   0.8717   0.9536   0.9665   0.9867   0.9997
     1.0440   1.0459   1.0764   1.1518   1.2026   1.2349   1.3108   1.3338
     1.3706   1.4476   1.4622   1.5419   1.6111   1.6636   1.6645   1.6722
     1.6932   1.7311   1.8160   1.8176   1.8418   1.8453   1.9353   2.0329
     2.0938   2.1237   2.1582   2.2029   2.2061   2.2069   2.2839   2.4148
     2.4168   2.4380   2.4877   2.5024   2.5403   2.5526   2.5814   2.5929
     2.6436   2.6561   2.6581   2.6891   2.7216   2.8020   2.8381   2.8600
     2.9454   2.9949   3.0219   3.0816   3.1217   3.1225   3.2311   3.2928
     3.3246   3.3323   3.3373   3.3617   3.4211   3.4269   3.4466   3.4609
     3.4745   3.4873   3.5581   3.6045   3.6129   3.6308   3.8219   3.8381
     3.9109   3.9306   3.9451   3.9459   5.8790   5.9223   6.2326   6.2663
     6.3717   6.5509   6.6244   6.6921   6.6921   6.8833   7.0551   7.0793
     7.2740   7.2779   7.3846   7.4275   7.5838   7.5945   7.6184   7.6205
     7.6539   7.6579   7.6581   7.7795   7.7822   7.7892   7.8154   7.8469
     7.8544   7.8627   7.8898   7.8986   7.9038   7.9317   8.0354   8.0836
     8.1728   8.2968   8.2979   8.4638   8.4864   8.5923   8.5977   8.6618
     8.7859

          k =-0.5000 0.0000 0.0000 ( 43106 PWs)   bands (ev):

   -59.9700 -59.9700 -59.8287 -59.8274 -59.8264 -59.8252 -59.7303 -59.7278
   -59.6885 -59.6879 -59.6868 -59.6862 -59.6647 -59.6630 -59.6391 -59.6371
   -34.0618 -34.0606 -33.9247 -33.9220 -33.9089 -33.9066 -33.8627 -33.8583
   -33.8412 -33.8398 -33.8009 -33.7972 -33.7140 -33.7132 -33.7126 -33.7108
   -33.7107 -33.7100 -33.6962 -33.6928 -33.6672 -33.6626 -33.6591 -33.6571
   -33.6554 -33.6480 -33.6322 -33.6294 -33.5972 -33.5910 -33.5877 -33.5466
   -33.5455 -33.5441 -33.5430 -33.5386 -33.5268 -33.5222 -33.5211 -33.5189
   -33.4902 -33.4883 -33.4722 -33.4647 -33.4638 -33.4536 -33.4514 -33.4450
   -13.4215 -13.3630 -13.2747 -13.1402 -12.9097 -12.9031 -12.7877 -12.7773
   -12.7566 -12.7306 -12.4509 -12.4403 -12.4383 -12.3479 -12.2313 -12.1229
   -12.0992 -11.9882 -11.9834 -11.9749 -11.9701 -11.9556 -11.9373 -11.8240
   -11.8171 -11.7745 -11.7704 -11.7460 -11.7460 -11.6885 -11.6709 -11.5989
   -11.5642 -11.5529 -11.5528 -11.5075 -11.4750 -11.4656 -11.4376  -0.8326
    -0.7946  -0.7551  -0.7027  -0.5491  -0.5275  -0.5239  -0.5003  -0.2870
    -0.1909  -0.1886  -0.1855  -0.1061  -0.0298  -0.0140   0.0198   0.0545
     0.0902   0.1019   0.1078   0.1229   0.1498   0.1869   0.2124   0.2944
     0.3093   0.3876   0.4045   0.4975   0.5860   0.5906   0.6014   0.7496
     0.8268   0.8439   0.8759   0.8963   1.0070   1.0536   1.0646   1.0905
     1.1056   1.1926   1.2009   1.3751   1.3815   1.3935   1.4782   1.4831
     1.5566   1.5725   1.6185   1.6329   1.6957   1.7825   1.8270   1.8382
     1.9005   1.9527   1.9904   2.0313   2.0991   2.1053   2.1069   2.1159
     2.1681   2.1709   2.1834   2.2037   2.2224   2.2506   2.2597   2.3040
     2.3392   2.3461   2.3521   2.3605   2.3706   2.4133   2.4159   2.5192
     2.5677   2.6222   2.6403   2.6482   2.7385   2.7447   2.7811   2.7966
     2.8175   2.8468   3.0211   3.0375   3.0417   3.0980   3.1399   3.1500
     3.2181   3.2741   3.3186   3.3201   3.3521   3.3778   3.3971   3.5219
     3.7097   3.7186   3.7440   3.7542   3.8017   3.9143   3.9369   3.9584
     3.9723   3.9769   3.9934   4.0316   6.1083   6.1830   6.3229   6.4017
     6.4358   6.5991   6.6246   6.6440   6.6739   6.7032   7.0033   7.1838
     7.3107   7.3559   7.4286   7.4486   7.4615   7.4981   7.5039   7.5194
     7.5848   7.5866   7.6193   7.6452   7.7020   7.7271   7.7437   7.7457
     7.8068   7.8690   7.8869   7.8953   7.9214   7.9318   7.9393   7.9689
     8.0039   8.0282   8.0538   8.1306   8.1448   8.1502   8.1776   8.1927
     8.2145

          k =-0.5000 0.0000-0.3051 ( 43120 PWs)   bands (ev):

   -59.9700 -59.9700 -59.8287 -59.8274 -59.8264 -59.8252 -59.7303 -59.7278
   -59.6884 -59.6879 -59.6868 -59.6862 -59.6647 -59.6631 -59.6391 -59.6372
   -34.0615 -34.0609 -33.9245 -33.9223 -33.9089 -33.9066 -33.8627 -33.8583
   -33.8408 -33.8402 -33.8003 -33.7979 -33.7138 -33.7129 -33.7124 -33.7111
   -33.7103 -33.7065 -33.6953 -33.6939 -33.6774 -33.6595 -33.6580 -33.6572
   -33.6568 -33.6481 -33.6321 -33.6295 -33.5919 -33.5814 -33.5805 -33.5710
   -33.5624 -33.5453 -33.5280 -33.5273 -33.5252 -33.5251 -33.5238 -33.5214
   -33.4845 -33.4811 -33.4726 -33.4683 -33.4663 -33.4563 -33.4490 -33.4473
   -13.4179 -13.3669 -13.2181 -13.2089 -12.8539 -12.8527 -12.8483 -12.8436
   -12.7492 -12.7418 -12.4488 -12.4449 -12.3828 -12.3441 -12.2721 -12.0466
   -12.0278 -12.0246 -12.0063 -11.9854 -11.9834 -11.9725 -11.9706 -11.8258
   -11.8113 -11.7756 -11.7737 -11.7480 -11.7467 -11.6852 -11.6789 -11.5798
   -11.5631 -11.5582 -11.5553 -11.4988 -11.4822 -11.4623 -11.4407  -0.8213
    -0.8135  -0.7339  -0.7287  -0.5435  -0.5425  -0.5251  -0.5152  -0.2943
    -0.1978  -0.1703  -0.1151  -0.1083  -0.0985   0.0312   0.0382   0.0419
     0.0834   0.1093   0.1322   0.1420   0.1522   0.1661   0.2070   0.2831
     0.2912   0.4483   0.4923   0.4961   0.5312   0.5361   0.6266   0.6569
     0.6827   0.7792   0.9181   0.9442   0.9600   0.9740   1.1270   1.1390
     1.2270   1.2613   1.2806   1.3374   1.3382   1.4028   1.4111   1.4677
     1.4863   1.5563   1.6612   1.6724   1.6941   1.7730   1.9124   1.9171
     1.9368   1.9919   2.0665   2.1015   2.1063   2.1160   2.1477   2.1696
     2.1750   2.1866   2.1895   2.2097   2.2150   2.2332   2.2500   2.2642
     2.2711   2.3259   2.3311   2.3355   2.3798   2.3915   2.4469   2.5235
     2.5476   2.5567   2.5603   2.5748   2.6979   2.7178   2.7645   2.7695
     2.7982   2.8101   2.8787   2.9727   3.1306   3.1322   3.1671   3.1988
     3.2165   3.3194   3.3282   3.3329   3.3518   3.3667   3.3832   3.5737
     3.6906   3.6987   3.7141   3.7192   3.8093   3.9593   3.9683   3.9703
     3.9781   3.9854   3.9906   4.0265   6.1193   6.2212   6.2753   6.4928
     6.5481   6.5499   6.5597   6.6442   6.6675   6.6816   7.0502   7.1892
     7.3544   7.3758   7.4333   7.4622   7.4733   7.5053   7.5116   7.5227
     7.5507   7.5639   7.6173   7.6413   7.6608   7.6931   7.7476   7.7929
     7.8130   7.8332   7.8466   7.8857   7.8864   7.9494   7.9838   7.9928
     7.9939   8.0269   8.0678   8.0918   8.1080   8.1178   8.1454   8.1725
     8.2076

          k =-0.5000-0.4047 0.0000 ( 43128 PWs)   bands (ev):

   -59.9700 -59.9700 -59.8287 -59.8274 -59.8264 -59.8252 -59.7303 -59.7278
   -59.6885 -59.6879 -59.6868 -59.6862 -59.6648 -59.6630 -59.6391 -59.6371
   -34.0618 -34.0605 -33.9247 -33.9219 -33.9089 -33.9065 -33.8628 -33.8582
   -33.8412 -33.8398 -33.8009 -33.7971 -33.7139 -33.7132 -33.7127 -33.7108
   -33.7107 -33.7100 -33.6963 -33.6928 -33.6672 -33.6626 -33.6592 -33.6572
   -33.6553 -33.6481 -33.6322 -33.6294 -33.5972 -33.5910 -33.5876 -33.5466
   -33.5455 -33.5441 -33.5430 -33.5386 -33.5269 -33.5222 -33.5212 -33.5190
   -33.4903 -33.4883 -33.4723 -33.4647 -33.4638 -33.4536 -33.4514 -33.4450
   -13.4162 -13.3595 -13.2678 -13.1355 -12.9130 -12.9099 -12.7822 -12.7813
   -12.7601 -12.7400 -12.4504 -12.4401 -12.4338 -12.3419 -12.2306 -12.1260
   -12.1017 -11.9882 -11.9817 -11.9749 -11.9683 -11.9565 -11.9376 -11.8181
   -11.8087 -11.7811 -11.7731 -11.7510 -11.7383 -11.6850 -11.6757 -11.5669
   -11.5624 -11.5554 -11.5527 -11.5158 -11.5093 -11.4680 -11.4491  -0.8312
    -0.7928  -0.7517  -0.6968  -0.5538  -0.5313  -0.5271  -0.5054  -0.2823
    -0.1863  -0.1396  -0.1279  -0.0624  -0.0001   0.0757   0.0854   0.1040
     0.1326   0.1930   0.1941   0.2038   0.2395   0.2460   0.2942   0.3166
     0.3907   0.4228   0.4791   0.5546   0.5911   0.6655   0.7551   0.7745
     0.7917   0.7932   0.8222   0.8316   0.8508   0.8510   0.9423   0.9425
     1.1057   1.1356   1.1414   1.1495   1.1952   1.2369   1.4303   1.4438
     1.4861   1.4975   1.5212   1.6845   1.6973   1.7432   1.7503   1.7532
     1.7979   1.8204   1.8855   1.9294   1.9570   2.0145   2.0845   2.0928
     2.0960   2.1569   2.1818   2.2147   2.2153   2.2344   2.2394   2.2755
     2.3060   2.3326   2.3688   2.4611   2.5164   2.5556   2.5728   2.6028
     2.6212   2.6537   2.6859   2.7435   2.7835   2.7987   2.8616   2.8802
     2.9819   2.9952   3.0463   3.0746   3.1640   3.1687   3.1756   3.2059
     3.2632   3.2824   3.2926   3.3663   3.3900   3.4750   3.4884   3.5368
     3.5965   3.6070   3.6822   3.7153   3.7228   3.7306   3.8243   3.8798
     3.9134   3.9334   3.9560   3.9580   6.1084   6.1792   6.3210   6.4107
     6.4442   6.5950   6.6290   6.6386   6.6505   6.7031   6.9857   7.1853
     7.3097   7.4311   7.4319   7.4645   7.5096   7.5187   7.5255   7.5426
     7.5541   7.5629   7.5703   7.6286   7.6756   7.7369   7.7838   7.8101
     7.8529   7.8548   7.8859   7.8971   7.9041   7.9187   7.9297   7.9606
     8.0122   8.0166   8.1066   8.1337   8.1718   8.1774   8.1789   8.1934
     8.2241

          k =-0.5000-0.4047-0.3051 ( 43072 PWs)   bands (ev):

   -59.9700 -59.9700 -59.8287 -59.8274 -59.8264 -59.8252 -59.7303 -59.7278
   -59.6884 -59.6879 -59.6868 -59.6862 -59.6647 -59.6631 -59.6391 -59.6372
   -34.0615 -34.0608 -33.9245 -33.9222 -33.9089 -33.9066 -33.8627 -33.8583
   -33.8408 -33.8402 -33.8003 -33.7978 -33.7138 -33.7129 -33.7125 -33.7110
   -33.7103 -33.7065 -33.6954 -33.6939 -33.6774 -33.6595 -33.6582 -33.6571
   -33.6567 -33.6480 -33.6321 -33.6294 -33.5919 -33.5813 -33.5805 -33.5710
   -33.5624 -33.5453 -33.5280 -33.5272 -33.5252 -33.5251 -33.5237 -33.5214
   -33.4845 -33.4811 -33.4726 -33.4683 -33.4662 -33.4563 -33.4489 -33.4473
   -13.4134 -13.3625 -13.2123 -13.2028 -12.8542 -12.8539 -12.8534 -12.8489
   -12.7531 -12.7476 -12.4483 -12.4449 -12.3811 -12.3407 -12.2694 -12.0444
   -12.0283 -12.0238 -12.0070 -11.9848 -11.9832 -11.9712 -11.9705 -11.8198
   -11.8076 -11.7807 -11.7753 -11.7505 -11.7404 -11.6895 -11.6717 -11.5655
   -11.5604 -11.5572 -11.5519 -11.5141 -11.5066 -11.4694 -11.4471  -0.8195
    -0.8121  -0.7294  -0.7244  -0.5460  -0.5459  -0.5280  -0.5204  -0.2970
    -0.1312  -0.1197  -0.0973  -0.0664  -0.0479   0.0867   0.1016   0.1111
     0.1185   0.1553   0.2332   0.2334   0.2357   0.2493   0.2633   0.3411
     0.4217   0.4514   0.4685   0.5019   0.5158   0.5848   0.7030   0.7695
     0.7807   0.7839   0.8452   0.8677   0.8679   0.9551   0.9913   0.9962
     1.0435   1.0464   1.1385   1.1661   1.2304   1.2515   1.3509   1.3631
     1.4582   1.5122   1.5577   1.6313   1.6795   1.7159   1.7775   1.8002
     1.9392   1.9788   2.0030   2.0138   2.0560   2.0683   2.0834   2.0997
     2.1207   2.1406   2.1828   2.1919   2.2047   2.2171   2.2172   2.2189
     2.3125   2.3675   2.3718   2.3949   2.4108   2.4332   2.4554   2.5697
     2.6183   2.6351   2.7412   2.7432   2.7678   2.7694   2.8070   2.8376
     2.9440   3.0460   3.0870   3.0916   3.0985   3.1431   3.1663   3.2085
     3.2411   3.2517   3.3286   3.3494   3.4428   3.4596   3.4735   3.5297
     3.6581   3.6632   3.6686   3.6929   3.7777   3.7917   3.7981   3.8183
     3.9390   3.9416   3.9518   3.9563   6.1213   6.2109   6.2826   6.4937
     6.5474   6.5574   6.5584   6.6095   6.6720   6.6910   7.0313   7.1912
     7.3605   7.3658   7.4722   7.4744   7.4989   7.5089   7.5488   7.5600
     7.5665   7.6276   7.6375   7.6898   7.6908   7.6976   7.7208   7.7310
     7.7398   7.7766   7.8693   7.9018   7.9050   7.9208   7.9819   7.9989
     8.0017   8.0287   8.0871   8.0923   8.1309   8.1420   8.1483   8.2040
     8.2092

     the Fermi energy is     5.7268 ev

!    total energy              =   -5053.46693105 Ry
     Harris-Foulkes estimate   =   -5053.46693105 Ry
     estimated scf accuracy    <          9.5E-10 Ry

     total all-electron energy =    -36252.035710 Ry

     The total energy is the sum of the following terms:

     one-electron contribution =   -2354.87019377 Ry
     hartree contribution      =    1348.20970871 Ry
     xc contribution           =    -612.39238740 Ry
     ewald contribution        =   -1941.86591062 Ry
     Dispersion Correction     =      -0.51389577 Ry
     one-center paw contrib.   =   -1491.92754278 Ry
     smearing contrib. (-TS)   =      -0.10670943 Ry

     convergence has been achieved in  34 iterations

     negative rho (up, down):  2.650E-03 0.000E+00

     Forces acting on atoms (cartesian axes, Ry/au):

     atom    1 type  1   force =     0.00000000   -0.00007091   -0.00002450
     atom    2 type  1   force =    -0.00000160    0.00001945    0.00000110
     atom    3 type  1   force =    -0.00000160    0.00001945   -0.00000110
     atom    4 type  1   force =     0.00000000   -0.00007091    0.00002450
     atom    5 type  2   force =    -0.00000766    0.00002726    0.00001665
     atom    6 type  2   force =     0.00000000    0.00000061   -0.00008361
     atom    7 type  2   force =     0.00000000    0.00000061    0.00008361
     atom    8 type  2   force =    -0.00000766    0.00002726   -0.00001665
     atom    9 type  2   force =     0.00000000    0.00002355    0.00004604
     atom   10 type  2   force =    -0.00000143    0.00001289   -0.00002880
     atom   11 type  2   force =    -0.00000143    0.00001289    0.00002880
     atom   12 type  2   force =    -0.00000485   -0.00003420    0.00000000
     atom   13 type  2   force =     0.00000000    0.00009005    0.00000000
     atom   14 type  2   force =     0.00000000    0.00002355   -0.00004604
     atom   15 type  1   force =     0.00000000    0.00003597    0.00001918
     atom   16 type  1   force =     0.00004551    0.00001007    0.00001817
     atom   17 type  1   force =     0.00004551    0.00001007   -0.00001817
     atom   18 type  1   force =     0.00000000    0.00003597   -0.00001918
     atom   19 type  2   force =    -0.00000343   -0.00006010    0.00005790
     atom   20 type  2   force =     0.00000000   -0.00007073   -0.00003253
     atom   21 type  2   force =     0.00000000   -0.00007073    0.00003253
     atom   22 type  2   force =    -0.00000343   -0.00006010   -0.00005790
     atom   23 type  2   force =     0.00000000   -0.00005437    0.00004198
     atom   24 type  2   force =     0.00002159    0.00006802    0.00003958
     atom   25 type  2   force =     0.00002159    0.00006802   -0.00003958
     atom   26 type  2   force =    -0.00009242    0.00000013    0.00000000
     atom   27 type  2   force =     0.00000000    0.00003416    0.00000000
     atom   28 type  2   force =     0.00000000   -0.00005437   -0.00004198
     atom   29 type  1   force =     0.00000000    0.00001237    0.00000146
     atom   30 type  1   force =     0.00000160    0.00001945    0.00000110
     atom   31 type  1   force =     0.00000160    0.00001945   -0.00000110
     atom   32 type  1   force =     0.00000000    0.00001237   -0.00000146
     atom   33 type  2   force =     0.00000766    0.00002726    0.00001665
     atom   34 type  2   force =     0.00000000   -0.00007502   -0.00002344
     atom   35 type  2   force =     0.00000000   -0.00007502    0.00002344
     atom   36 type  2   force =     0.00000766    0.00002726   -0.00001665
     atom   37 type  2   force =     0.00000000    0.00004599   -0.00003787
     atom   38 type  2   force =     0.00000143    0.00001289   -0.00002880
     atom   39 type  2   force =     0.00000143    0.00001289    0.00002880
     atom   40 type  2   force =     0.00000485   -0.00003420    0.00000000
     atom   41 type  2   force =     0.00000000    0.00003926    0.00000000
     atom   42 type  2   force =     0.00000000    0.00004599    0.00003787
     atom   43 type  1   force =     0.00000000    0.00005968   -0.00004115
     atom   44 type  1   force =    -0.00004551    0.00001007    0.00001817
     atom   45 type  1   force =    -0.00004551    0.00001007   -0.00001817
     atom   46 type  1   force =     0.00000000    0.00005968    0.00004115
     atom   47 type  2   force =     0.00000343   -0.00006010    0.00005790
     atom   48 type  2   force =     0.00000000   -0.00007353    0.00002980
     atom   49 type  2   force =     0.00000000   -0.00007353   -0.00002980
     atom   50 type  2   force =     0.00000343   -0.00006010   -0.00005790
     atom   51 type  2   force =     0.00000000   -0.00003645    0.00000368
     atom   52 type  2   force =    -0.00002159    0.00006802    0.00003958
     atom   53 type  2   force =    -0.00002159    0.00006802   -0.00003958
     atom   54 type  2   force =     0.00009242    0.00000013    0.00000000
     atom   55 type  2   force =     0.00000000   -0.00003645   -0.00000368

     Total force =     0.000454     Total SCF correction =     0.000110
     SCF correction compared to forces is large: reduce conv_thr to get better values

     BFGS Geometry Optimization

     bfgs converged in   1 scf cycles and   0 bfgs steps
     (criteria: energy <  1.0E-04 Ry, force <  1.0E-04 Ry/Bohr)

     End of BFGS Geometry Optimization

     Final energy   =   -5053.4669310516 Ry
Begin final coordinates

ATOMIC_POSITIONS (angstrom)
V        0.000000000   1.629042173   7.540579196
V        1.758795332   2.727720029   9.885442588
V        1.758795332   2.727720029   1.733700173
V        0.000000000   1.629042173   4.078563554
O        1.759108866   2.157999730   7.914477579
O        0.000000000   2.159236582   9.538934961
O        0.000000000   2.159236582   2.080207801
O        1.759108866   2.157999730   3.704665171
O        0.000000000   0.031410801   4.050733400
O        1.691068626   4.327100882   1.770907010
O        1.691068626   4.327100882   9.848235752
O        1.789409998   2.308013907   0.000000000
O        0.000000000   2.063177270   5.809571380
O        0.000000000   0.031410801   7.568409371
V        0.000000000   6.163086766   7.495053625
V        1.749504306   7.062775058   9.917509164
V        1.749504306   7.062775058   1.701633598
V        0.000000000   6.163086766   4.124089124
O        1.876783670   6.597545842   7.814344144
O        0.000000000   6.662884689   9.423746645
O        0.000000000   6.662884689   2.195396116
O        1.876783670   6.597545842   3.804798606
O        0.000000000   4.575551894   4.188472101
O        1.898540658   8.644361621   1.672260731
O        1.898540658   8.644361621   9.946882029
O        1.579626438   6.612074285   0.000000000
O        0.000000000   6.693766998   5.809571380
O        0.000000000   4.575551894   7.430670671
V        3.544647955   1.683968581   7.524290177
V        5.330500593   2.727720029   9.885442588
V        5.330500593   2.727720029   1.733700173
V        3.544647955   1.683968581   4.094852572
O        5.330187058   2.157999730   7.914477579
O        3.544647955   2.270997373   9.502368441
O        3.544647955   2.270997373   2.116774321
O        5.330187058   2.157999730   3.704665171
O        3.544647955   0.088254370   4.152434181
O        5.398227298   4.327100882   1.770907010
O        5.398227298   4.327100882   9.848235752
O        5.299885924   2.308013907   0.000000000
O        3.544647955   2.164746140   5.809571380
O        3.544647955   0.088254370   7.466708591
V        3.544647955   5.931349217   7.949286181
V        5.339791618   7.062775058   9.917509164
V        5.339791618   7.062775058   1.701633598
V        3.544647955   5.931349217   3.669856568
O        5.212512253   6.597545842   7.814344144
O        3.544647955   6.344067309   9.756000009
O        3.544647955   6.344067309   1.863142753
O        5.212512253   6.597545842   3.804798606
O        3.544647955   4.407131430   4.133644356
O        5.190755266   8.644361621   1.672260731
O        5.190755266   8.644361621   9.946882029
O        5.509669485   6.612074285   0.000000000
O        3.544647955   4.407131430   7.485498416
End final coordinates



     Writing output data file v16o39.save/

     init_run     :     94.01s CPU     95.17s WALL (       1 calls)
     electrons    :   9391.24s CPU   9437.51s WALL (       1 calls)
     forces       :     83.97s CPU     84.53s WALL (       1 calls)

     Called by init_run:
     wfcinit      :     84.93s CPU     85.36s WALL (       1 calls)
     potinit      :      2.11s CPU      2.16s WALL (       1 calls)
     hinit0       :      1.64s CPU      1.67s WALL (       1 calls)

     Called by electrons:
     c_bands      :   8461.92s CPU   8493.53s WALL (      34 calls)
     sum_band     :    813.97s CPU    823.14s WALL (      34 calls)
     v_of_rho     :      7.67s CPU      8.13s WALL (      35 calls)
     newd         :     85.24s CPU     90.60s WALL (      35 calls)
     PAW_pot      :     23.32s CPU     23.34s WALL (      35 calls)
     mix_rho      :      1.82s CPU      1.89s WALL (      34 calls)

     Called by c_bands:
     init_us_2    :      9.38s CPU      9.46s WALL (     560 calls)
     cegterg      :   8427.55s CPU   8459.03s WALL (     272 calls)

     Called by sum_band:
     sum_band:bec :      1.63s CPU      1.64s WALL (     272 calls)
     addusdens    :     78.75s CPU     84.30s WALL (      34 calls)

     Called by *egterg:
     h_psi        :   3413.55s CPU   3427.23s WALL (    1479 calls)
     s_psi        :   1207.61s CPU   1210.67s WALL (    1479 calls)
     g_psi        :      1.69s CPU      1.70s WALL (    1199 calls)
     cdiaghg      :    815.02s CPU    823.39s WALL (    1471 calls)

     Called by h_psi:
     h_psi:pot    :   3409.44s CPU   3423.03s WALL (    1479 calls)
     h_psi:calbec :   1560.28s CPU   1566.41s WALL (    1479 calls)
     vloc_psi     :    382.09s CPU    385.56s WALL (    1479 calls)
     add_vuspsi   :   1467.03s CPU   1471.04s WALL (    1479 calls)

     General routines
     calbec       :   2261.52s CPU   2270.59s WALL (    1783 calls)
     fft          :      8.04s CPU      8.70s WALL (     464 calls)
     ffts         :      0.45s CPU      0.47s WALL (      69 calls)
     fftw         :    431.54s CPU    435.45s WALL (  434882 calls)
     interpolate  :      0.76s CPU      0.82s WALL (      35 calls)

     Parallel routines
     fft_scatt_xy :     30.00s CPU     30.32s WALL (  435415 calls)
     fft_scatt_yz :    299.58s CPU    302.99s WALL (  435415 calls)

     PWSCF        :      2h39m CPU      2h40m WALL


   This run was terminated on:  23:21:26  11Jun2024            

=------------------------------------------------------------------------------=
   JOB DONE.
=------------------------------------------------------------------------------=
