
     Program PWSCF v.6.4.1 starts on 19Oct2024 at 18:56:27 

     This program is part of the open-source Quantum ESPRESSO suite
     for quantum simulation of materials; please cite
         "P. Giannozzi et al., J. Phys.:Condens. Matter 21 395502 (2009);
         "P. Giannozzi et al., J. Phys.:Condens. Matter 29 465901 (2017);
          URL http://www.quantum-espresso.org", 
     in publications or presentations arising from this work. More details at
     http://www.quantum-espresso.org/quote

     Parallel version (MPI), running on    32 processors

     MPI processes distributed on     1 nodes
     R & G space division:  proc/nbgrp/npool/nimage =      32
     Reading input from v16o40.rlx.in
Warning: card &CELL ignored
Warning: card     CELL_DYNAMICS  = "BFGS" ignored
Warning: card / ignored

     Current dimensions of program PWSCF are:
     Max number of different atomic species (ntypx) = 10
     Max number of k-points (npk) =  40000
     Max angular momentum in pseudopotentials (lmaxx) =  3

     IMPORTANT: XC functional enforced from input :
     Exchange-correlation      = VDW-DF ( 1  4  4  0 1 0)
     Any further DFT definition will be discarded
     Please, verify this is what you really want

               file V.pbesol-spnl-kjpaw_psl.1.0.0.UPF: wavefunction(s)  3P 3D renormalized
               file O.pbesol-n-kjpaw_psl.1.0.0.UPF: wavefunction(s)  2S 2P renormalized

     Subspace diagonalization in iterative solution of the eigenvalue problem:
     one sub-group per band group will be used
     ELPA distributed-memory algorithm (size of sub-group:  4*  4 procs)

     Found symmetry operation: I + (  0.5000  0.0000  0.0000)
     This is a supercell, fractional translations are disabled
     Message from routine setup:
     DEPRECATED: symmetry with ibrav=0, use correct ibrav instead

     Parallelization info
     --------------------
     sticks:   dense  smooth     PW     G-vecs:    dense   smooth      PW
     Min         249     100     27                20221     5114     743
     Max         250     101     28                20224     5115     748
     Sum        7999    3209    891               647119   163657   23859



     bravais-lattice index     =            0
     lattice parameter (alat)  =      13.6262  a.u.
     unit-cell volume          =    4790.1372 (a.u.)^3
     number of atoms/cell      =           56
     number of atomic types    =            2
     number of electrons       =       448.00
     number of Kohn-Sham states=          269
     kinetic-energy cutoff     =      40.0000  Ry
     charge density cutoff     =     400.0000  Ry
     convergence threshold     =      1.0E-06
     mixing beta               =       0.4000
     number of iterations used =            8  plain     mixing
     Exchange-correlation      = VDW-DF ( 1  4  4  0 1 0)
     nstep                     =          500


     celldm(1)=  13.626204  celldm(2)=   0.000000  celldm(3)=   0.000000
     celldm(4)=   0.000000  celldm(5)=   0.000000  celldm(6)=   0.000000

     crystal axes: (cart. coord. in units of alat)
               a(1) = (   1.000000   0.000000   0.000000 )  
               a(2) = (   0.000000   1.353546   0.000000 )  
               a(3) = (   0.000000   0.000000   1.398783 )  

     reciprocal axes: (cart. coord. in units 2 pi/alat)
               b(1) = (  1.000000  0.000000  0.000000 )  
               b(2) = (  0.000000  0.738800  0.000000 )  
               b(3) = (  0.000000  0.000000  0.714907 )  


     PseudoPot. # 1 for V  read from file:
     /home/mpicuntureo/pseudos/V.pbesol-spnl-kjpaw_psl.1.0.0.UPF
     MD5 check sum: d709b3179d4cab0f72010db8785d50db
     Pseudo is Projector augmented-wave + core cor, Zval = 13.0
     Generated using "atomic" code by A. Dal Corso v.6.3
     Shape of augmentation charge: PSQ
     Using radial grid of 1181 points,  6 beta functions with: 
                l(1) =   0
                l(2) =   0
                l(3) =   1
                l(4) =   1
                l(5) =   2
                l(6) =   2
     Q(r) pseudized with 0 coefficients 


     PseudoPot. # 2 for O  read from file:
     /home/mpicuntureo/pseudos/O.pbesol-n-kjpaw_psl.1.0.0.UPF
     MD5 check sum: cb766521a97cf798d01896eaf7ac9a0a
     Pseudo is Projector augmented-wave + core cor, Zval =  6.0
     Generated using "atomic" code by A. Dal Corso v.6.3
     Shape of augmentation charge: PSQ
     Using radial grid of 1095 points,  4 beta functions with: 
                l(1) =   0
                l(2) =   0
                l(3) =   1
                l(4) =   1
     Q(r) pseudized with 0 coefficients 


     vdW kernel table read from file vdW_kernel_table
     MD5 check sum: 8c4337f4b28e1601c069d7ef7b6561bc

     atomic species   valence    mass     pseudopotential
        V             13.00    50.94150     V ( 1.00)
        O              6.00    15.99940     O ( 1.00)

      2 Sym. Ops., with inversion, found



   Cartesian axes

     site n.     atom                  positions (alat units)
         1           V   tau(   1) = (   0.1250000   1.1799066  -0.0230308  )
         2           V   tau(   2) = (   0.3750000   0.1736394   1.4218137  )
         3           V   tau(   3) = (   0.3750000   0.8504123   0.6763606  )
         4           V   tau(   4) = (   0.1250000   0.5031336   0.7224223  )
         5           V   tau(   5) = (   0.1250000   0.7628632   1.2451682  )
         6           V   tau(   6) = (   0.3750000   0.5906827   0.1536147  )
         7           V   tau(   7) = (   0.3750000   1.2674557   0.5457767  )
         8           V   tau(   8) = (   0.1250000   0.0860903   0.8530062  )
         9           O   tau(   9) = (   0.1250000   1.0044151   1.1936654  )
        10           O   tau(  10) = (   0.3750000   0.3491309   0.2051175  )
        11           O   tau(  11) = (   0.3750000   1.0259038   0.4942739  )
        12           O   tau(  12) = (   0.1250000   0.3276421   0.9045090  )
        13           O   tau(  13) = (   0.1250000   1.3360801   1.0514365  )
        14           O   tau(  14) = (   0.3750000   0.0174659   0.3473464  )
        15           O   tau(  15) = (   0.3750000   0.6942389   0.3520450  )
        16           O   tau(  16) = (   0.1250000   0.6593071   1.0467378  )
        17           O   tau(  17) = (   0.1250000   1.0545013   0.1621290  )
        18           O   tau(  18) = (   0.3750000   0.2990447   1.2366539  )
        19           O   tau(  19) = (   0.3750000   0.9758176   0.8615204  )
        20           O   tau(  20) = (   0.1250000   0.3777283   0.5372625  )
        21           O   tau(  21) = (   0.1250000   0.0996943   0.0523127  )
        22           O   tau(  22) = (   0.3750000   1.2538517   1.3464702  )
        23           O   tau(  23) = (   0.3750000   0.5770787   0.7517041  )
        24           O   tau(  24) = (   0.1250000   0.7764672   0.6470788  )
        25           O   tau(  25) = (   0.1250000   1.2695330   0.6308963  )
        26           O   tau(  26) = (   0.3750000   0.0840130   0.7678866  )
        27           O   tau(  27) = (   0.3750000   0.7607859   1.3302877  )
        28           O   tau(  28) = (   0.1250000   0.5927600   0.0684952  )
        29           V   tau(  29) = (   0.6250000   1.1799066  -0.0230308  )
        30           V   tau(  30) = (   0.8750000   0.1736394   1.4218137  )
        31           V   tau(  31) = (   0.8750000   0.8504123   0.6763606  )
        32           V   tau(  32) = (   0.6250000   0.5031336   0.7224223  )
        33           V   tau(  33) = (   0.6250000   0.7628632   1.2451682  )
        34           V   tau(  34) = (   0.8750000   0.5906827   0.1536147  )
        35           V   tau(  35) = (   0.8750000   1.2674557   0.5457767  )
        36           V   tau(  36) = (   0.6250000   0.0860903   0.8530062  )
        37           O   tau(  37) = (   0.6250000   1.0044151   1.1936654  )
        38           O   tau(  38) = (   0.8750000   0.3491309   0.2051175  )
        39           O   tau(  39) = (   0.8750000   1.0259038   0.4942739  )
        40           O   tau(  40) = (   0.6250000   0.3276421   0.9045090  )
        41           O   tau(  41) = (   0.6250000   1.3360801   1.0514365  )
        42           O   tau(  42) = (   0.8750000   0.0174659   0.3473464  )
        43           O   tau(  43) = (   0.8750000   0.6942389   0.3520450  )
        44           O   tau(  44) = (   0.6250000   0.6593071   1.0467378  )
        45           O   tau(  45) = (   0.6250000   1.0545013   0.1621290  )
        46           O   tau(  46) = (   0.8750000   0.2990447   1.2366539  )
        47           O   tau(  47) = (   0.8750000   0.9758176   0.8615204  )
        48           O   tau(  48) = (   0.6250000   0.3777283   0.5372625  )
        49           O   tau(  49) = (   0.6250000   0.0996943   0.0523127  )
        50           O   tau(  50) = (   0.8750000   1.2538517   1.3464702  )
        51           O   tau(  51) = (   0.8750000   0.5770787   0.7517041  )
        52           O   tau(  52) = (   0.6250000   0.7764672   0.6470788  )
        53           O   tau(  53) = (   0.6250000   1.2695330   0.6308963  )
        54           O   tau(  54) = (   0.8750000   0.0840130   0.7678866  )
        55           O   tau(  55) = (   0.8750000   0.7607859   1.3302877  )
        56           O   tau(  56) = (   0.6250000   0.5927600   0.0684952  )

     number of k points=     8  gaussian smearing, width (Ry)=  0.1000
                       cart. coord. in units 2pi/alat
        k(    1) = (   0.0000000   0.0000000   0.0000000), wk =   0.2500000
        k(    2) = (   0.0000000   0.0000000  -0.3574536), wk =   0.2500000
        k(    3) = (   0.0000000  -0.3694001   0.0000000), wk =   0.2500000
        k(    4) = (   0.0000000  -0.3694001  -0.3574536), wk =   0.2500000
        k(    5) = (  -0.5000000   0.0000000   0.0000000), wk =   0.2500000
        k(    6) = (  -0.5000000   0.0000000  -0.3574536), wk =   0.2500000
        k(    7) = (  -0.5000000  -0.3694001   0.0000000), wk =   0.2500000
        k(    8) = (  -0.5000000  -0.3694001  -0.3574536), wk =   0.2500000

     Dense  grid:   647119 G-vectors     FFT dimensions: (  90, 120, 125)

     Smooth grid:   163657 G-vectors     FFT dimensions: (  60,  75,  80)

     Estimated max dynamical RAM per process >     157.35 MB

     Estimated total dynamical RAM >       4.92 GB

     Check: negative core charge=   -0.000007

     Initial potential from superposition of free atoms

     starting charge  447.98644, renormalised to  448.00000


     %%%%%%%%%%%%%%%%%%%%%%%%%%%%%%%%%%%%%%%%%%%%%%%%%%%%%%%%%%%%%%%%%%%%%%%%
     %                                                                      %
     % You are using vdW-DF, which was implemented by the Thonhauser group. %
     % Please cite the following two papers that made this development      %
     % possible and the two reviews that describe the various versions:     %
     %                                                                      %
     %   T. Thonhauser et al., PRL 115, 136402 (2015).                      %
     %   T. Thonhauser et al., PRB 76, 125112 (2007).                       %
     %   K. Berland et al., Rep. Prog. Phys. 78, 066501 (2015).             %
     %   D.C. Langreth et al., J. Phys.: Condens. Matter 21, 084203 (2009). %
     %                                                                      %
     %                                                                      %
     % If you are calculating the stress with vdW-DF, please also cite:     %
     %                                                                      %
     %   R. Sabatini et al., J. Phys.: Condens. Matter 24, 424209 (2012).   %
     %                                                                      %
     %%%%%%%%%%%%%%%%%%%%%%%%%%%%%%%%%%%%%%%%%%%%%%%%%%%%%%%%%%%%%%%%%%%%%%%%


     Starting wfcs are  320 randomized atomic wfcs
     Checking if some PAW data can be deallocated... 

     total cpu time spent up to now is       22.0 secs

     Self-consistent Calculation

     iteration #  1     ecut=    40.00 Ry     beta= 0.40
     Davidson diagonalization with overlap
     ethr =  1.00E-02,  avg # of iterations =  2.0

     total cpu time spent up to now is       65.7 secs

     total energy              =   -5128.79071774 Ry
     Harris-Foulkes estimate   =   -5151.67497357 Ry
     estimated scf accuracy    <      39.90246585 Ry

     iteration #  2     ecut=    40.00 Ry     beta= 0.40
     Davidson diagonalization with overlap
     ethr =  8.91E-03,  avg # of iterations =  4.5

     total cpu time spent up to now is      148.6 secs

     total energy              =   -5110.77344239 Ry
     Harris-Foulkes estimate   =   -5171.02247516 Ry
     estimated scf accuracy    <     344.46428691 Ry

     iteration #  3     ecut=    40.00 Ry     beta= 0.40
     Davidson diagonalization with overlap
     ethr =  8.91E-03,  avg # of iterations =  5.1

     total cpu time spent up to now is      230.8 secs

     total energy              =   -5145.55945579 Ry
     Harris-Foulkes estimate   =   -5147.11904657 Ry
     estimated scf accuracy    <       9.58513931 Ry

     iteration #  4     ecut=    40.00 Ry     beta= 0.40
     Davidson diagonalization with overlap
     ethr =  2.14E-03,  avg # of iterations =  1.0

     total cpu time spent up to now is      271.1 secs

     total energy              =   -5145.43698683 Ry
     Harris-Foulkes estimate   =   -5145.95972626 Ry
     estimated scf accuracy    <       4.12571623 Ry

     iteration #  5     ecut=    40.00 Ry     beta= 0.40
     Davidson diagonalization with overlap
     ethr =  9.21E-04,  avg # of iterations =  2.4

     total cpu time spent up to now is      313.2 secs

     total energy              =   -5145.43140193 Ry
     Harris-Foulkes estimate   =   -5145.68588211 Ry
     estimated scf accuracy    <       1.73741094 Ry

     iteration #  6     ecut=    40.00 Ry     beta= 0.40
     Davidson diagonalization with overlap
     ethr =  3.88E-04,  avg # of iterations =  5.5

     negative rho (up, down):  1.165E-04 0.000E+00

     total cpu time spent up to now is      373.7 secs

     total energy              =   -5145.71149436 Ry
     Harris-Foulkes estimate   =   -5145.81801538 Ry
     estimated scf accuracy    <       0.55838979 Ry

     iteration #  7     ecut=    40.00 Ry     beta= 0.40
     Davidson diagonalization with overlap
     ethr =  1.25E-04,  avg # of iterations =  2.4

     negative rho (up, down):  6.870E-04 0.000E+00

     total cpu time spent up to now is      416.4 secs

     total energy              =   -5145.71224836 Ry
     Harris-Foulkes estimate   =   -5145.75364534 Ry
     estimated scf accuracy    <       0.18909124 Ry

     iteration #  8     ecut=    40.00 Ry     beta= 0.40
     Davidson diagonalization with overlap
     ethr =  4.22E-05,  avg # of iterations =  6.5

     negative rho (up, down):  1.074E-03 0.000E+00

     total cpu time spent up to now is      507.7 secs

     total energy              =   -5145.71650384 Ry
     Harris-Foulkes estimate   =   -5145.85345487 Ry
     estimated scf accuracy    <       0.72676927 Ry

     iteration #  9     ecut=    40.00 Ry     beta= 0.40
     Davidson diagonalization with overlap
     ethr =  4.22E-05,  avg # of iterations =  4.5

     negative rho (up, down):  1.255E-03 0.000E+00

     total cpu time spent up to now is      554.4 secs

     total energy              =   -5145.73286562 Ry
     Harris-Foulkes estimate   =   -5145.75925120 Ry
     estimated scf accuracy    <       0.11258090 Ry

     iteration # 10     ecut=    40.00 Ry     beta= 0.40
     Davidson diagonalization with overlap
     ethr =  2.51E-05,  avg # of iterations =  5.1

     negative rho (up, down):  1.385E-03 0.000E+00

     total cpu time spent up to now is      624.8 secs

     total energy              =   -5145.77056510 Ry
     Harris-Foulkes estimate   =   -5145.77361515 Ry
     estimated scf accuracy    <       0.08169117 Ry

     iteration # 11     ecut=    40.00 Ry     beta= 0.40
     Davidson diagonalization with overlap
     ethr =  1.82E-05,  avg # of iterations =  3.1

     negative rho (up, down):  1.383E-03 0.000E+00

     total cpu time spent up to now is      668.3 secs

     total energy              =   -5145.76754592 Ry
     Harris-Foulkes estimate   =   -5145.77409129 Ry
     estimated scf accuracy    <       0.06175419 Ry

     iteration # 12     ecut=    40.00 Ry     beta= 0.40
     Davidson diagonalization with overlap
     ethr =  1.38E-05,  avg # of iterations =  1.0

     negative rho (up, down):  1.576E-03 0.000E+00

     total cpu time spent up to now is      708.3 secs

     total energy              =   -5145.76434976 Ry
     Harris-Foulkes estimate   =   -5145.77029498 Ry
     estimated scf accuracy    <       0.03620660 Ry

     iteration # 13     ecut=    40.00 Ry     beta= 0.40
     Davidson diagonalization with overlap
     ethr =  8.08E-06,  avg # of iterations =  1.0

     negative rho (up, down):  1.676E-03 0.000E+00

     total cpu time spent up to now is      748.3 secs

     total energy              =   -5145.76520097 Ry
     Harris-Foulkes estimate   =   -5145.76658238 Ry
     estimated scf accuracy    <       0.00782311 Ry

     iteration # 14     ecut=    40.00 Ry     beta= 0.40
     Davidson diagonalization with overlap
     ethr =  1.75E-06,  avg # of iterations =  8.4

     negative rho (up, down):  1.782E-03 0.000E+00

     total cpu time spent up to now is      821.9 secs

     total energy              =   -5145.76673107 Ry
     Harris-Foulkes estimate   =   -5145.76697893 Ry
     estimated scf accuracy    <       0.00226998 Ry

     iteration # 15     ecut=    40.00 Ry     beta= 0.40
     Davidson diagonalization with overlap
     ethr =  5.07E-07,  avg # of iterations =  1.9

     negative rho (up, down):  1.834E-03 0.000E+00

     total cpu time spent up to now is      863.3 secs

     total energy              =   -5145.76682546 Ry
     Harris-Foulkes estimate   =   -5145.76690447 Ry
     estimated scf accuracy    <       0.00054860 Ry

     iteration # 16     ecut=    40.00 Ry     beta= 0.40
     Davidson diagonalization with overlap
     ethr =  1.22E-07,  avg # of iterations =  4.2

     negative rho (up, down):  1.888E-03 0.000E+00

     total cpu time spent up to now is      915.4 secs

     total energy              =   -5145.76695654 Ry
     Harris-Foulkes estimate   =   -5145.76694342 Ry
     estimated scf accuracy    <       0.00016377 Ry

     iteration # 17     ecut=    40.00 Ry     beta= 0.40
     Davidson diagonalization with overlap
     ethr =  3.66E-08,  avg # of iterations =  6.2

     negative rho (up, down):  1.922E-03 0.000E+00

     total cpu time spent up to now is      970.3 secs

     total energy              =   -5145.76698242 Ry
     Harris-Foulkes estimate   =   -5145.76698711 Ry
     estimated scf accuracy    <       0.00011729 Ry

     iteration # 18     ecut=    40.00 Ry     beta= 0.40
     Davidson diagonalization with overlap
     ethr =  2.62E-08,  avg # of iterations =  5.9

     negative rho (up, down):  1.930E-03 0.000E+00

     total cpu time spent up to now is     1018.9 secs

     total energy              =   -5145.76698855 Ry
     Harris-Foulkes estimate   =   -5145.76699608 Ry
     estimated scf accuracy    <       0.00002900 Ry

     iteration # 19     ecut=    40.00 Ry     beta= 0.40
     Davidson diagonalization with overlap
     ethr =  6.47E-09,  avg # of iterations =  4.9

     negative rho (up, down):  1.942E-03 0.000E+00

     total cpu time spent up to now is     1078.9 secs

     total energy              =   -5145.76699660 Ry
     Harris-Foulkes estimate   =   -5145.76699633 Ry
     estimated scf accuracy    <       0.00000909 Ry

     iteration # 20     ecut=    40.00 Ry     beta= 0.40
     Davidson diagonalization with overlap
     ethr =  2.03E-09,  avg # of iterations =  5.2

     negative rho (up, down):  1.964E-03 0.000E+00

     total cpu time spent up to now is     1135.3 secs

     total energy              =   -5145.76700639 Ry
     Harris-Foulkes estimate   =   -5145.76700054 Ry
     estimated scf accuracy    <       0.00002370 Ry

     iteration # 21     ecut=    40.00 Ry     beta= 0.40
     Davidson diagonalization with overlap
     ethr =  2.03E-09,  avg # of iterations =  2.6

     negative rho (up, down):  1.969E-03 0.000E+00

     total cpu time spent up to now is     1177.9 secs

     total energy              =   -5145.76700811 Ry
     Harris-Foulkes estimate   =   -5145.76700844 Ry
     estimated scf accuracy    <       0.00000338 Ry

     iteration # 22     ecut=    40.00 Ry     beta= 0.40
     Davidson diagonalization with overlap
     ethr =  7.55E-10,  avg # of iterations =  4.0

     negative rho (up, down):  1.971E-03 0.000E+00

     total cpu time spent up to now is     1226.3 secs

     total energy              =   -5145.76700822 Ry
     Harris-Foulkes estimate   =   -5145.76700869 Ry
     estimated scf accuracy    <       0.00000148 Ry

     iteration # 23     ecut=    40.00 Ry     beta= 0.40
     Davidson diagonalization with overlap
     ethr =  3.31E-10,  avg # of iterations =  5.2

     negative rho (up, down):  1.974E-03 0.000E+00

     total cpu time spent up to now is     1280.4 secs

     total energy              =   -5145.76700856 Ry
     Harris-Foulkes estimate   =   -5145.76700880 Ry
     estimated scf accuracy    <       0.00000331 Ry

     iteration # 24     ecut=    40.00 Ry     beta= 0.40
     Davidson diagonalization with overlap
     ethr =  3.31E-10,  avg # of iterations =  2.6

     negative rho (up, down):  1.977E-03 0.000E+00

     total cpu time spent up to now is     1323.6 secs

     End of self-consistent calculation

          k = 0.0000 0.0000 0.0000 ( 20421 PWs)   bands (ev):

   -59.7540 -59.7537 -59.7472 -59.7471 -59.7466 -59.7466 -59.7464 -59.7463
   -59.7428 -59.7425 -59.7396 -59.7396 -59.7396 -59.7396 -59.7357 -59.7356
   -33.7564 -33.7536 -33.7390 -33.7390 -33.7374 -33.7374 -33.7297 -33.7283
   -33.7243 -33.7221 -33.7076 -33.7076 -33.7055 -33.7055 -33.6989 -33.6970
   -33.6245 -33.6237 -33.6192 -33.6192 -33.6185 -33.6185 -33.5742 -33.5742
   -33.5731 -33.5731 -33.5605 -33.5599 -33.5468 -33.5464 -33.5290 -33.5290
   -33.5286 -33.5286 -33.5245 -33.5239 -33.5160 -33.5153 -33.4928 -33.4928
   -33.4915 -33.4915 -33.4897 -33.4894 -33.4882 -33.4870 -33.4795 -33.4788
   -13.4098 -13.3331 -13.1900 -13.1446 -12.4694 -12.4694 -12.4146 -12.4146
   -12.3794 -12.3446 -12.2779 -12.2779 -12.2664 -12.2664 -12.2222 -12.1978
   -12.1335 -12.1251 -12.1089 -12.0678 -12.0567 -12.0567 -12.0330 -12.0330
   -11.6234 -11.6094 -11.5942 -11.5942 -11.5862 -11.5829 -11.5330 -11.5330
   -11.5005 -11.4872 -11.4841 -11.4795 -11.4795 -11.4654 -11.4654 -11.4216
    -0.3104  -0.3104  -0.3075  -0.3075  -0.1657  -0.1574  -0.0444  -0.0444
    -0.0363  -0.0363   0.0558   0.0629   0.0764   0.0907   0.1723   0.2048
     0.2319   0.2426   0.4795   0.4947   0.4948   0.5083   0.5083   0.5978
     0.6367   0.6689   0.7740   0.7740   0.8180   0.8180   0.9284   0.9284
     1.0307   1.0321   1.0321   1.0683   1.1615   1.1928   1.1928   1.2026
     1.2026   1.2590   1.3944   1.3944   1.3991   1.6081   1.6164   1.6164
     1.6941   1.7023   1.7605   1.7606   1.8026   1.8470   1.8470   1.8471
     1.9419   1.9567   2.0634   2.0634   2.0820   2.2715   2.3037   2.3037
     2.3111   2.3147   2.3410   2.4418   2.4418   2.4587   2.5027   2.5027
     2.5159   2.5168   2.5995   2.5995   2.6190   2.6423   2.6604   2.6677
     2.7249   2.7900   2.8194   2.8507   2.8507   2.9005   2.9547   2.9547
     3.0138   3.0284   3.1022   3.1757   3.1870   3.2398   3.2398   3.2626
     3.3292   3.3584   3.3914   3.3948   3.4135   3.4135   3.4218   3.4218
     3.4373   3.4459   3.5127   3.6063   3.6116   3.7028   3.8465   3.8465
     3.8974   3.8974   4.0181   4.0181   4.0296   4.0657   4.0657   4.1034
     6.2017   6.2552   6.2870   6.3886   6.6820   6.6820   6.7710   6.7710
     7.2383   7.2383   7.3544   7.3641   7.3641   7.4519   7.4801   7.5128
     7.6764   7.7137   7.7509   7.8037   7.8152   7.8152   7.8520   7.8520
     7.8961   7.8961   7.9103   7.9926   7.9926   8.0793   8.3153   8.3153
     8.3433   8.3678   8.3678   8.4314   8.4314   8.4339   8.5250   8.5250
     8.5482   8.6010   8.6316   8.6647   8.7012

          k = 0.0000 0.0000-0.3575 ( 20470 PWs)   bands (ev):

   -59.7540 -59.7538 -59.7472 -59.7471 -59.7466 -59.7466 -59.7464 -59.7464
   -59.7428 -59.7426 -59.7397 -59.7396 -59.7396 -59.7396 -59.7357 -59.7357
   -33.7555 -33.7552 -33.7396 -33.7396 -33.7373 -33.7373 -33.7297 -33.7294
   -33.7236 -33.7236 -33.7077 -33.7077 -33.7055 -33.7055 -33.6981 -33.6981
   -33.6245 -33.6244 -33.6192 -33.6192 -33.6191 -33.6191 -33.5739 -33.5739
   -33.5732 -33.5732 -33.5604 -33.5602 -33.5475 -33.5474 -33.5293 -33.5293
   -33.5291 -33.5291 -33.5247 -33.5245 -33.5159 -33.5158 -33.4928 -33.4928
   -33.4920 -33.4920 -33.4899 -33.4897 -33.4874 -33.4872 -33.4791 -33.4790
   -13.3706 -13.3705 -13.1708 -13.1707 -12.4658 -12.4658 -12.4181 -12.4181
   -12.3602 -12.3601 -12.2756 -12.2756 -12.2693 -12.2693 -12.2093 -12.2092
   -12.1319 -12.1317 -12.0871 -12.0869 -12.0567 -12.0567 -12.0327 -12.0327
   -11.6165 -11.6165 -11.5948 -11.5948 -11.5793 -11.5793 -11.5343 -11.5343
   -11.4979 -11.4976 -11.4781 -11.4781 -11.4651 -11.4651 -11.4537 -11.4534
    -0.3190  -0.3190  -0.2988  -0.2988  -0.1586  -0.1585  -0.0443  -0.0443
    -0.0327  -0.0327   0.0647   0.0648   0.0708   0.0711   0.1973   0.1973
     0.2552   0.2553   0.4517   0.4517   0.5230   0.5231   0.5748   0.5748
     0.7059   0.7060   0.7319   0.7319   0.8017   0.8017   0.8375   0.8375
     0.9579   0.9579   1.0519   1.0519   1.1426   1.1426   1.1431   1.1431
     1.2842   1.2843   1.5288   1.5288   1.5546   1.5547   1.5764   1.5764
     1.7548   1.7548   1.7689   1.7690   1.8666   1.8667   1.9082   1.9082
     1.9390   1.9391   2.0790   2.0792   2.0865   2.0865   2.3019   2.3019
     2.3326   2.3326   2.4200   2.4202   2.4592   2.4592   2.4629   2.4629
     2.5055   2.5055   2.5395   2.5397   2.5558   2.5558   2.6743   2.6743
     2.7732   2.7732   2.7982   2.7984   2.9281   2.9284   2.9897   2.9898
     3.0231   3.0231   3.1426   3.1427   3.2381   3.2381   3.2500   3.2500
     3.3468   3.3472   3.3683   3.3683   3.3702   3.3703   3.4107   3.4107
     3.5189   3.5189   3.5504   3.5504   3.6335   3.6337   3.7329   3.7329
     3.8750   3.8750   4.0704   4.0704   4.0919   4.0919   4.0968   4.0968
     6.2123   6.2123   6.3517   6.3518   6.7031   6.7031   6.7481   6.7481
     7.2681   7.2681   7.3599   7.3599   7.3984   7.3986   7.4981   7.4982
     7.7110   7.7110   7.7403   7.7403   7.7975   7.7975   7.8227   7.8227
     7.9096   7.9096   7.9839   7.9839   7.9956   7.9957   8.3220   8.3220
     8.3713   8.3713   8.4056   8.4059   8.4863   8.4863   8.4877   8.4877
     8.6017   8.6017   8.6616   8.6617   8.7322

          k = 0.0000-0.3694 0.0000 ( 20462 PWs)   bands (ev):

   -59.7532 -59.7529 -59.7493 -59.7493 -59.7466 -59.7466 -59.7464 -59.7464
   -59.7407 -59.7404 -59.7396 -59.7396 -59.7395 -59.7395 -59.7365 -59.7365
   -33.7514 -33.7511 -33.7421 -33.7420 -33.7383 -33.7382 -33.7380 -33.7380
   -33.7135 -33.7134 -33.7064 -33.7064 -33.7063 -33.7063 -33.6983 -33.6983
   -33.6175 -33.6175 -33.6173 -33.6173 -33.6114 -33.6111 -33.5940 -33.5940
   -33.5778 -33.5778 -33.5777 -33.5777 -33.5255 -33.5255 -33.5254 -33.5254
   -33.5245 -33.5243 -33.5171 -33.5171 -33.5127 -33.5124 -33.5036 -33.5036
   -33.4937 -33.4937 -33.4936 -33.4936 -33.4879 -33.4877 -33.4802 -33.4802
   -13.3414 -13.3412 -13.2124 -13.2123 -12.4332 -12.4332 -12.4330 -12.4330
   -12.2930 -12.2929 -12.2894 -12.2894 -12.2894 -12.2894 -12.2550 -12.2549
   -12.1291 -12.1290 -12.1011 -12.1009 -12.0380 -12.0380 -12.0379 -12.0379
   -11.6050 -11.6049 -11.5856 -11.5856 -11.5599 -11.5599 -11.5599 -11.5599
   -11.5073 -11.5070 -11.4748 -11.4748 -11.4743 -11.4743 -11.4471 -11.4469
    -0.2788  -0.2788  -0.2788  -0.2788  -0.1597  -0.1595  -0.0860  -0.0860
    -0.0859  -0.0859   0.0594   0.0597   0.0659   0.0660   0.1253   0.1253
     0.3653   0.3653   0.5136   0.5136   0.5137   0.5137   0.5198   0.5198
     0.7017   0.7017   0.7618   0.7618   0.7618   0.7618   0.8833   0.8833
     0.8984   0.8984   0.8984   0.8984   1.2287   1.2288   1.3830   1.3830
     1.3830   1.3830   1.5096   1.5097   1.6249   1.6249   1.6251   1.6251
     1.7058   1.7059   1.7832   1.7832   1.7833   1.7833   1.8476   1.8477
     1.8960   1.8960   1.8961   1.8961   1.9373   1.9375   2.2624   2.2626
     2.3862   2.3863   2.4307   2.4308   2.4872   2.4875   2.5047   2.5047
     2.5051   2.5051   2.5880   2.5882   2.6022   2.6023   2.7264   2.7264
     2.7266   2.7266   2.7445   2.7445   2.7755   2.7757   3.0575   3.0577
     3.1324   3.1325   3.2001   3.2001   3.2002   3.2002   3.2697   3.2697
     3.3482   3.3485   3.4117   3.4119   3.4188   3.4189   3.4872   3.4872
     3.4874   3.4874   3.6078   3.6080   3.7306   3.7307   3.8164   3.8164
     3.8165   3.8165   3.9279   3.9280   4.0119   4.0119   4.0121   4.0121
     6.2707   6.2707   6.2898   6.2898   6.6723   6.6723   6.6724   6.6724
     7.3525   7.3525   7.3526   7.3526   7.4150   7.4151   7.4820   7.4821
     7.7571   7.7572   7.7925   7.7926   7.8231   7.8231   7.8232   7.8232
     8.0049   8.0049   8.0050   8.0050   8.0797   8.0797   8.1989   8.1991
     8.2749   8.2749   8.2749   8.2749   8.5129   8.5129   8.5130   8.5130
     8.5789   8.5790   8.6791   8.6792   8.7254

          k = 0.0000-0.3694-0.3575 ( 20464 PWs)   bands (ev):

   -59.7532 -59.7529 -59.7493 -59.7493 -59.7466 -59.7466 -59.7464 -59.7464
   -59.7407 -59.7405 -59.7396 -59.7396 -59.7395 -59.7395 -59.7365 -59.7365
   -33.7526 -33.7523 -33.7423 -33.7421 -33.7380 -33.7380 -33.7377 -33.7377
   -33.7136 -33.7135 -33.7060 -33.7060 -33.7060 -33.7060 -33.6987 -33.6987
   -33.6174 -33.6174 -33.6172 -33.6172 -33.6117 -33.6115 -33.5946 -33.5945
   -33.5777 -33.5777 -33.5776 -33.5776 -33.5254 -33.5254 -33.5253 -33.5253
   -33.5243 -33.5241 -33.5169 -33.5168 -33.5132 -33.5130 -33.5037 -33.5037
   -33.4938 -33.4938 -33.4937 -33.4937 -33.4872 -33.4870 -33.4797 -33.4797
   -13.3297 -13.3296 -13.2264 -13.2262 -12.4324 -12.4324 -12.4323 -12.4323
   -12.2904 -12.2904 -12.2904 -12.2904 -12.2858 -12.2857 -12.2598 -12.2597
   -12.1285 -12.1284 -12.1021 -12.1019 -12.0379 -12.0379 -12.0378 -12.0378
   -11.6052 -11.6051 -11.5824 -11.5823 -11.5608 -11.5608 -11.5608 -11.5608
   -11.4948 -11.4944 -11.4737 -11.4737 -11.4732 -11.4732 -11.4629 -11.4625
    -0.2786  -0.2786  -0.2785  -0.2785  -0.1565  -0.1563  -0.0837  -0.0837
    -0.0836  -0.0836   0.0593   0.0596   0.0608   0.0609   0.1684   0.1684
     0.3658   0.3658   0.4171   0.4173   0.5212   0.5212   0.5213   0.5213
     0.7036   0.7037   0.7212   0.7212   0.7213   0.7213   0.8903   0.8904
     0.9558   0.9558   0.9559   0.9559   1.2364   1.2364   1.2364   1.2364
     1.3725   1.3726   1.4392   1.4394   1.7079   1.7079   1.7080   1.7080
     1.7777   1.7778   1.8021   1.8023   1.8617   1.8619   1.8869   1.8869
     1.8870   1.8870   1.9590   1.9590   1.9592   1.9592   2.2380   2.2383
     2.3759   2.3759   2.3763   2.3763   2.4362   2.4364   2.4634   2.4635
     2.4705   2.4707   2.5203   2.5205   2.6555   2.6555   2.6556   2.6556
     2.6597   2.6598   2.7092   2.7094   2.9283   2.9287   2.9787   2.9787
     3.1202   3.1202   3.2355   3.2355   3.2355   3.2355   3.2689   3.2689
     3.3524   3.3527   3.3762   3.3764   3.4120   3.4120   3.5679   3.5679
     3.5679   3.5679   3.5760   3.5761   3.7372   3.7373   3.7659   3.7659
     3.7660   3.7660   3.9514   3.9514   4.0160   4.0160   4.0161   4.0161
     6.2791   6.2792   6.2820   6.2820   6.6775   6.6775   6.6776   6.6776
     7.3579   7.3579   7.3580   7.3580   7.4323   7.4324   7.4645   7.4647
     7.7498   7.7499   7.7855   7.7856   7.8122   7.8122   7.8123   7.8123
     8.0077   8.0077   8.0078   8.0078   8.0964   8.0964   8.1914   8.1916
     8.2725   8.2725   8.2725   8.2725   8.5158   8.5158   8.5159   8.5159
     8.6182   8.6183   8.6322   8.6324   8.7275

          k =-0.5000 0.0000 0.0000 ( 20504 PWs)   bands (ev):

   -59.7516 -59.7514 -59.7513 -59.7512 -59.7446 -59.7446 -59.7446 -59.7444
   -59.7437 -59.7435 -59.7434 -59.7433 -59.7366 -59.7365 -59.7365 -59.7363
   -33.7514 -33.7513 -33.7497 -33.7496 -33.7313 -33.7311 -33.7296 -33.7295
   -33.7200 -33.7199 -33.7178 -33.7177 -33.6999 -33.6998 -33.6984 -33.6983
   -33.6237 -33.6237 -33.6230 -33.6230 -33.5884 -33.5884 -33.5882 -33.5882
   -33.5555 -33.5555 -33.5553 -33.5553 -33.5506 -33.5505 -33.5501 -33.5501
   -33.5257 -33.5257 -33.5252 -33.5252 -33.5091 -33.5091 -33.5087 -33.5086
   -33.4929 -33.4929 -33.4929 -33.4928 -33.4859 -33.4858 -33.4854 -33.4854
   -13.0806 -13.0806 -13.0089 -13.0089 -12.8582 -12.8582 -12.8211 -12.8211
   -12.2606 -12.2606 -12.2189 -12.2188 -12.1493 -12.1493 -12.1454 -12.1454
   -12.1023 -12.1022 -12.0970 -12.0969 -12.0786 -12.0786 -12.0433 -12.0433
   -11.6202 -11.6201 -11.5917 -11.5916 -11.5595 -11.5594 -11.5464 -11.5463
   -11.5134 -11.5134 -11.4832 -11.4831 -11.4798 -11.4798 -11.4263 -11.4263
    -0.5370  -0.5370  -0.5214  -0.5213  -0.4407  -0.4407  -0.4387  -0.4387
     0.2044   0.2044   0.2823   0.2823   0.3466   0.3467   0.3609   0.3610
     0.3711   0.3712   0.3746   0.3746   0.5360   0.5360   0.6541   0.6541
     0.6886   0.6886   0.7214   0.7215   0.9074   0.9074   0.9491   0.9491
     1.0299   1.0299   1.0662   1.0662   1.1008   1.1008   1.1465   1.1465
     1.2253   1.2254   1.3395   1.3396   1.4449   1.4450   1.6530   1.6530
     1.7471   1.7471   1.7526   1.7526   1.8574   1.8574   1.8758   1.8758
     2.1864   2.1865   2.2453   2.2453   2.2491   2.2491   2.2957   2.2958
     2.3071   2.3071   2.3753   2.3753   2.4484   2.4484   2.4602   2.4602
     2.4615   2.4615   2.4689   2.4689   2.5755   2.5755   2.7192   2.7192
     2.7508   2.7509   2.9129   2.9130   2.9192   2.9193   2.9634   2.9634
     2.9875   2.9875   3.0136   3.0136   3.1774   3.1774   3.2518   3.2519
     3.2538   3.2538   3.3568   3.3569   3.4438   3.4439   3.5584   3.5584
     3.5975   3.5975   3.7667   3.7667   3.8140   3.8140   3.8361   3.8362
     3.9007   3.9007   3.9845   3.9845   4.0167   4.0167   4.1746   4.1747
     6.5001   6.5002   6.5310   6.5310   6.6003   6.6004   6.6022   6.6022
     7.3761   7.3761   7.3797   7.3797   7.4116   7.4116   7.4209   7.4209
     7.6440   7.6441   7.7473   7.7474   7.7479   7.7479   7.7573   7.7573
     7.7823   7.7823   7.8185   7.8185   7.8327   7.8327   7.9329   7.9329
     8.0589   8.0589   8.1180   8.1181   8.1394   8.1394   8.1723   8.1724
     8.2753   8.2753   8.2905   8.2905   8.4391

          k =-0.5000 0.0000-0.3575 ( 20444 PWs)   bands (ev):

   -59.7516 -59.7514 -59.7513 -59.7512 -59.7446 -59.7446 -59.7445 -59.7444
   -59.7436 -59.7435 -59.7434 -59.7433 -59.7365 -59.7365 -59.7365 -59.7363
   -33.7502 -33.7500 -33.7499 -33.7498 -33.7303 -33.7301 -33.7299 -33.7298
   -33.7185 -33.7185 -33.7185 -33.7184 -33.6986 -33.6985 -33.6985 -33.6984
   -33.6229 -33.6228 -33.6228 -33.6227 -33.5881 -33.5881 -33.5879 -33.5879
   -33.5555 -33.5555 -33.5554 -33.5553 -33.5501 -33.5501 -33.5500 -33.5500
   -33.5254 -33.5254 -33.5252 -33.5252 -33.5093 -33.5092 -33.5091 -33.5091
   -33.4928 -33.4928 -33.4927 -33.4926 -33.4851 -33.4850 -33.4849 -33.4849
   -13.0442 -13.0442 -13.0441 -13.0441 -12.8428 -12.8427 -12.8427 -12.8427
   -12.2384 -12.2384 -12.2383 -12.2382 -12.1477 -12.1477 -12.1476 -12.1475
   -12.0997 -12.0996 -12.0995 -12.0995 -12.0607 -12.0606 -12.0605 -12.0604
   -11.6054 -11.6053 -11.6052 -11.6052 -11.5497 -11.5496 -11.5495 -11.5495
   -11.5003 -11.5002 -11.4998 -11.4998 -11.4540 -11.4540 -11.4537 -11.4536
    -0.5246  -0.5246  -0.5245  -0.5245  -0.4429  -0.4429  -0.4429  -0.4429
     0.2359   0.2359   0.2361   0.2361   0.3345   0.3345   0.3345   0.3346
     0.4186   0.4186   0.4186   0.4187   0.6110   0.6111   0.6111   0.6112
     0.7254   0.7254   0.7255   0.7255   0.7885   0.7886   0.7886   0.7886
     0.9902   0.9902   0.9902   0.9902   1.2098   1.2098   1.2099   1.2099
     1.2853   1.2853   1.2855   1.2855   1.5902   1.5902   1.5902   1.5902
     1.7857   1.7857   1.7858   1.7858   1.9760   1.9760   1.9761   1.9761
     2.1436   2.1436   2.1439   2.1439   2.2903   2.2903   2.2905   2.2905
     2.3124   2.3124   2.3126   2.3126   2.4196   2.4196   2.4198   2.4198
     2.4913   2.4913   2.4913   2.4914   2.5748   2.5748   2.5751   2.5751
     2.7875   2.7875   2.7876   2.7877   2.9216   2.9216   2.9216   2.9216
     3.0920   3.0920   3.0921   3.0921   3.2508   3.2508   3.2509   3.2509
     3.3399   3.3400   3.3400   3.3400   3.4078   3.4079   3.4079   3.4079
     3.7067   3.7067   3.7067   3.7068   3.8249   3.8249   3.8250   3.8250
     3.8830   3.8830   3.8831   3.8831   4.1618   4.1618   4.1619   4.1619
     6.5146   6.5147   6.5147   6.5148   6.6007   6.6008   6.6008   6.6009
     7.3800   7.3800   7.3800   7.3800   7.4232   7.4232   7.4232   7.4232
     7.6612   7.6613   7.6613   7.6614   7.7163   7.7163   7.7163   7.7163
     7.8438   7.8439   7.8439   7.8440   7.9138   7.9138   7.9139   7.9139
     8.0811   8.0811   8.0812   8.0812   8.1631   8.1632   8.1633   8.1633
     8.2685   8.2685   8.2687   8.2687   8.5186

          k =-0.5000-0.3694 0.0000 ( 20444 PWs)   bands (ev):

   -59.7509 -59.7507 -59.7506 -59.7504 -59.7473 -59.7472 -59.7472 -59.7471
   -59.7409 -59.7408 -59.7407 -59.7406 -59.7373 -59.7372 -59.7372 -59.7370
   -33.7468 -33.7466 -33.7465 -33.7464 -33.7386 -33.7385 -33.7384 -33.7384
   -33.7121 -33.7120 -33.7120 -33.7119 -33.6991 -33.6990 -33.6990 -33.6989
   -33.6137 -33.6135 -33.6134 -33.6134 -33.6012 -33.6012 -33.6012 -33.6011
   -33.5568 -33.5567 -33.5566 -33.5565 -33.5523 -33.5523 -33.5523 -33.5522
   -33.5113 -33.5113 -33.5112 -33.5111 -33.5102 -33.5101 -33.5101 -33.5100
   -33.4923 -33.4922 -33.4922 -33.4921 -33.4916 -33.4916 -33.4915 -33.4914
   -13.0162 -13.0161 -13.0160 -13.0160 -12.8860 -12.8859 -12.8858 -12.8858
   -12.1724 -12.1724 -12.1724 -12.1723 -12.1436 -12.1436 -12.1435 -12.1433
   -12.1162 -12.1162 -12.1161 -12.1159 -12.1023 -12.1023 -12.1021 -12.1021
   -11.5804 -11.5803 -11.5803 -11.5802 -11.5690 -11.5689 -11.5688 -11.5688
   -11.5071 -11.5070 -11.5067 -11.5066 -11.4494 -11.4494 -11.4492 -11.4491
    -0.5294  -0.5293  -0.5293  -0.5293  -0.4447  -0.4447  -0.4447  -0.4447
     0.2528   0.2528   0.2530   0.2531   0.2973   0.2973   0.2973   0.2974
     0.4784   0.4784   0.4784   0.4785   0.5808   0.5808   0.5809   0.5809
     0.6913   0.6913   0.6914   0.6914   0.8831   0.8831   0.8832   0.8832
     0.9981   0.9981   0.9982   0.9982   1.1949   1.1949   1.1949   1.1949
     1.2662   1.2662   1.2662   1.2662   1.5132   1.5132   1.5133   1.5134
     1.7688   1.7688   1.7688   1.7688   1.9028   1.9028   1.9030   1.9030
     2.2242   2.2242   2.2243   2.2243   2.2584   2.2585   2.2587   2.2587
     2.3761   2.3761   2.3764   2.3764   2.4487   2.4487   2.4487   2.4488
     2.4762   2.4763   2.4763   2.4763   2.6650   2.6651   2.6651   2.6651
     2.7637   2.7637   2.7639   2.7639   2.8637   2.8637   2.8638   2.8638
     2.9864   2.9864   2.9864   2.9864   3.2475   3.2475   3.2476   3.2476
     3.4323   3.4324   3.4324   3.4324   3.5991   3.5992   3.5992   3.5992
     3.6463   3.6464   3.6464   3.6464   3.7973   3.7974   3.7975   3.7975
     3.9638   3.9638   3.9638   3.9638   3.9839   3.9839   3.9840   3.9840
     6.5251   6.5251   6.5252   6.5252   6.5568   6.5568   6.5569   6.5569
     7.4021   7.4021   7.4022   7.4022   7.4297   7.4297   7.4298   7.4298
     7.6879   7.6879   7.6880   7.6880   7.7430   7.7430   7.7431   7.7431
     7.8260   7.8260   7.8261   7.8261   7.9688   7.9688   7.9689   7.9689
     8.0257   8.0257   8.0258   8.0258   8.1643   8.1644   8.1645   8.1645
     8.2884   8.2884   8.2886   8.2887   8.5244

          k =-0.5000-0.3694-0.3575 ( 20448 PWs)   bands (ev):

   -59.7509 -59.7506 -59.7506 -59.7504 -59.7473 -59.7473 -59.7472 -59.7471
   -59.7409 -59.7408 -59.7406 -59.7406 -59.7373 -59.7372 -59.7372 -59.7370
   -33.7477 -33.7475 -33.7474 -33.7473 -33.7387 -33.7386 -33.7385 -33.7385
   -33.7123 -33.7123 -33.7122 -33.7121 -33.6993 -33.6991 -33.6991 -33.6990
   -33.6136 -33.6134 -33.6133 -33.6133 -33.6014 -33.6014 -33.6013 -33.6012
   -33.5570 -33.5569 -33.5568 -33.5567 -33.5521 -33.5520 -33.5520 -33.5519
   -33.5110 -33.5110 -33.5109 -33.5108 -33.5102 -33.5100 -33.5100 -33.5099
   -33.4922 -33.4921 -33.4921 -33.4920 -33.4914 -33.4914 -33.4914 -33.4913
   -13.0069 -13.0068 -13.0067 -13.0067 -12.8976 -12.8975 -12.8974 -12.8974
   -12.1698 -12.1698 -12.1697 -12.1697 -12.1437 -12.1437 -12.1436 -12.1434
   -12.1168 -12.1168 -12.1167 -12.1165 -12.1023 -12.1022 -12.1021 -12.1021
   -11.5862 -11.5861 -11.5861 -11.5860 -11.5581 -11.5580 -11.5579 -11.5579
   -11.5001 -11.5001 -11.4996 -11.4996 -11.4615 -11.4615 -11.4611 -11.4611
    -0.5243  -0.5242  -0.5242  -0.5242  -0.4489  -0.4488  -0.4488  -0.4488
     0.2623   0.2623   0.2626   0.2626   0.3423   0.3424   0.3424   0.3424
     0.4576   0.4576   0.4577   0.4577   0.5204   0.5204   0.5205   0.5206
     0.6830   0.6830   0.6832   0.6832   0.8381   0.8381   0.8382   0.8382
     1.0531   1.0532   1.0532   1.0532   1.0657   1.0657   1.0657   1.0657
     1.4936   1.4936   1.4937   1.4937   1.5033   1.5034   1.5035   1.5035
     1.7623   1.7624   1.7626   1.7626   2.0186   2.0186   2.0186   2.0186
     2.0831   2.0831   2.0833   2.0833   2.1959   2.1960   2.1961   2.1961
     2.4367   2.4367   2.4369   2.4369   2.4450   2.4450   2.4453   2.4453
     2.4964   2.4964   2.4966   2.4966   2.5450   2.5450   2.5451   2.5451
     2.7941   2.7941   2.7943   2.7943   2.8437   2.8437   2.8438   2.8438
     3.1288   3.1289   3.1290   3.1290   3.1402   3.1402   3.1403   3.1403
     3.5004   3.5004   3.5005   3.5005   3.5008   3.5008   3.5009   3.5009
     3.6990   3.6991   3.6992   3.6992   3.7961   3.7962   3.7963   3.7963
     3.9159   3.9159   3.9159   3.9159   4.0333   4.0333   4.0334   4.0334
     6.5317   6.5317   6.5318   6.5318   6.5508   6.5509   6.5509   6.5510
     7.4014   7.4014   7.4015   7.4015   7.4309   7.4309   7.4310   7.4310
     7.6831   7.6832   7.6832   7.6832   7.7072   7.7073   7.7074   7.7074
     7.8966   7.8967   7.8967   7.8967   7.9339   7.9340   7.9340   7.9340
     8.0433   8.0433   8.0434   8.0434   8.1606   8.1607   8.1607   8.1608
     8.2622   8.2622   8.2624   8.2624   8.5394

     the Fermi energy is     5.3862 ev

!    total energy              =   -5145.76700866 Ry
     Harris-Foulkes estimate   =   -5145.76700886 Ry
     estimated scf accuracy    <       0.00000026 Ry

     total all-electron energy =    -36454.326748 Ry

     The total energy is the sum of the following terms:

     one-electron contribution =   -2194.24106080 Ry
     hartree contribution      =    1279.28937344 Ry
     xc contribution           =    -634.94743631 Ry
     ewald contribution        =   -2056.94759470 Ry
     one-center paw contrib.   =   -1538.22934408 Ry
     smearing contrib. (-TS)   =      -0.69094621 Ry

     convergence has been achieved in  24 iterations

     negative rho (up, down):  1.977E-03 0.000E+00

     Forces acting on atoms (cartesian axes, Ry/au):

     atom    1 type  1   force =    -0.00004275   -0.00205133   -0.00118202
     atom    2 type  1   force =     0.00005767    0.00207587    0.00120444
     atom    3 type  1   force =     0.00004959    0.00210545   -0.00089913
     atom    4 type  1   force =    -0.00003984   -0.00210828    0.00088521
     atom    5 type  1   force =    -0.00006790    0.00009287   -0.00064407
     atom    6 type  1   force =     0.00005331   -0.00010313    0.00067773
     atom    7 type  1   force =     0.00005145   -0.00001488   -0.00046297
     atom    8 type  1   force =    -0.00005645    0.00001523    0.00045813
     atom    9 type  2   force =    -0.00000979    0.00039005   -0.00043428
     atom   10 type  2   force =     0.00000773   -0.00039193    0.00044786
     atom   11 type  2   force =     0.00000953   -0.00036039   -0.00044904
     atom   12 type  2   force =    -0.00000717    0.00035871    0.00045514
     atom   13 type  2   force =    -0.00000832   -0.00087157    0.00074375
     atom   14 type  2   force =     0.00000773    0.00087431   -0.00075504
     atom   15 type  2   force =     0.00000919    0.00088620    0.00076544
     atom   16 type  2   force =    -0.00000733   -0.00088331   -0.00075900
     atom   17 type  2   force =    -0.00001776   -0.00097092    0.00016285
     atom   18 type  2   force =     0.00001167    0.00097767   -0.00016479
     atom   19 type  2   force =     0.00001275    0.00102678    0.00025171
     atom   20 type  2   force =    -0.00001826   -0.00102808   -0.00025154
     atom   21 type  2   force =    -0.00000934   -0.00171039   -0.00000750
     atom   22 type  2   force =    -0.00001510    0.00170172   -0.00000335
     atom   23 type  2   force =    -0.00000235    0.00170888   -0.00001840
     atom   24 type  2   force =     0.00000056   -0.00170956    0.00002081
     atom   25 type  2   force =     0.00000889    0.00003528    0.00228824
     atom   26 type  2   force =     0.00000324   -0.00003768   -0.00228774
     atom   27 type  2   force =    -0.00000453   -0.00002934    0.00225562
     atom   28 type  2   force =     0.00000177    0.00002584   -0.00225405
     atom   29 type  1   force =    -0.00005767   -0.00207587   -0.00120444
     atom   30 type  1   force =     0.00004275    0.00205133    0.00118202
     atom   31 type  1   force =     0.00003984    0.00210828   -0.00088521
     atom   32 type  1   force =    -0.00004959   -0.00210545    0.00089913
     atom   33 type  1   force =    -0.00005331    0.00010313   -0.00067773
     atom   34 type  1   force =     0.00006790   -0.00009287    0.00064407
     atom   35 type  1   force =     0.00005645   -0.00001523   -0.00045813
     atom   36 type  1   force =    -0.00005145    0.00001488    0.00046297
     atom   37 type  2   force =    -0.00000773    0.00039193   -0.00044786
     atom   38 type  2   force =     0.00000979   -0.00039005    0.00043428
     atom   39 type  2   force =     0.00000717   -0.00035871   -0.00045514
     atom   40 type  2   force =    -0.00000953    0.00036039    0.00044904
     atom   41 type  2   force =    -0.00000773   -0.00087431    0.00075504
     atom   42 type  2   force =     0.00000832    0.00087157   -0.00074375
     atom   43 type  2   force =     0.00000733    0.00088331    0.00075900
     atom   44 type  2   force =    -0.00000919   -0.00088620   -0.00076544
     atom   45 type  2   force =    -0.00001167   -0.00097767    0.00016479
     atom   46 type  2   force =     0.00001776    0.00097092   -0.00016285
     atom   47 type  2   force =     0.00001826    0.00102808    0.00025154
     atom   48 type  2   force =    -0.00001275   -0.00102678   -0.00025171
     atom   49 type  2   force =     0.00001510   -0.00170172    0.00000335
     atom   50 type  2   force =     0.00000934    0.00171039    0.00000750
     atom   51 type  2   force =    -0.00000056    0.00170956   -0.00002081
     atom   52 type  2   force =     0.00000235   -0.00170888    0.00001840
     atom   53 type  2   force =    -0.00000324    0.00003768    0.00228774
     atom   54 type  2   force =    -0.00000889   -0.00003528   -0.00228824
     atom   55 type  2   force =    -0.00000177   -0.00002584    0.00225405
     atom   56 type  2   force =     0.00000453    0.00002934   -0.00225562

     Total force =     0.011525     Total SCF correction =     0.001924
     SCF correction compared to forces is large: reduce conv_thr to get better values

     BFGS Geometry Optimization

     bfgs converged in   1 scf cycles and   0 bfgs steps
     (criteria: energy <  1.0E-04 Ry, force <  1.0E-02 Ry/Bohr)

     End of BFGS Geometry Optimization

     Final energy   =   -5145.7670086616 Ry
Begin final coordinates

ATOMIC_POSITIONS (angstrom)
V        0.901334570   8.507924730  -0.166067730
V        2.704003710   1.252057220  10.252238680
V        2.704003710   6.132048190   4.877017750
V        0.901334570   3.627933760   5.209153200
V        0.901334570   5.500759920   8.978505000
V        2.704003710   4.259222020   1.107665960
V        2.704003710   9.139213000   3.935419520
V        0.901334570   0.620768950   6.150751440
O        0.901334570   7.242512170   8.607134970
O        2.704003710   2.517469770   1.479035990
O        2.704003710   7.397460750   3.564049490
O        0.901334570   2.362521200   6.522121470
O        0.901334570   9.634041110   7.581568430
O        2.704003710   0.125940840   2.504602530
O        2.704003710   5.005931820   2.538482950
O        0.901334570   4.754050130   7.547688000
O        0.901334570   7.603667500   1.169059570
O        2.704003710   2.156314450   8.917111390
O        2.704003710   7.036305420   6.212145050
O        0.901334570   2.723676530   3.874025910
O        0.901334570   0.718863070   0.377209680
O        2.704003710   9.041118880   9.708961280
O        2.704003710   4.161127900   5.420295150
O        0.901334570   5.598854040   4.665875800
O        0.901334570   9.154191720   4.549188930
O        2.704003710   0.605790230   5.536982030
O        2.704003710   5.485781200   9.592274410
O        0.901334570   4.274200740   0.493896550
V        4.506672830   8.507924730  -0.166067730
V        6.309341980   1.252057220  10.252238680
V        6.309341980   6.132048190   4.877017750
V        4.506672830   3.627933760   5.209153200
V        4.506672830   5.500759920   8.978505000
V        6.309341980   4.259222020   1.107665960
V        6.309341980   9.139213000   3.935419520
V        4.506672830   0.620768950   6.150751440
O        4.506672830   7.242512170   8.607134970
O        6.309341980   2.517469770   1.479035990
O        6.309341980   7.397460750   3.564049490
O        4.506672830   2.362521200   6.522121470
O        4.506672830   9.634041110   7.581568430
O        6.309341980   0.125940840   2.504602530
O        6.309341980   5.005931820   2.538482950
O        4.506672830   4.754050130   7.547688000
O        4.506672830   7.603667500   1.169059570
O        6.309341980   2.156314450   8.917111390
O        6.309341980   7.036305420   6.212145050
O        4.506672830   2.723676530   3.874025910
O        4.506672830   0.718863070   0.377209680
O        6.309341980   9.041118880   9.708961280
O        6.309341980   4.161127900   5.420295150
O        4.506672830   5.598854040   4.665875800
O        4.506672830   9.154191720   4.549188930
O        6.309341980   0.605790230   5.536982030
O        6.309341980   5.485781200   9.592274410
O        4.506672830   4.274200740   0.493896550
End final coordinates



     Writing output data file liv2o5_gamma.save/

     init_run     :     20.29s CPU     20.64s WALL (       1 calls)
     electrons    :   1282.67s CPU   1301.64s WALL (       1 calls)
     forces       :     20.42s CPU     20.75s WALL (       1 calls)

     Called by init_run:
     wfcinit      :     18.36s CPU     18.49s WALL (       1 calls)
     potinit      :      0.61s CPU      0.68s WALL (       1 calls)
     hinit0       :      0.57s CPU      0.59s WALL (       1 calls)

     Called by electrons:
     c_bands      :   1131.00s CPU   1143.61s WALL (      24 calls)
     sum_band     :    127.84s CPU    130.46s WALL (      24 calls)
     v_of_rho     :      4.81s CPU      6.08s WALL (      25 calls)
     newd         :     14.68s CPU     17.25s WALL (      25 calls)
     PAW_pot      :      4.90s CPU      4.95s WALL (      25 calls)
     mix_rho      :      0.21s CPU      0.22s WALL (      24 calls)

     Called by c_bands:
     init_us_2    :      2.16s CPU      2.26s WALL (     400 calls)
     cegterg      :   1125.76s CPU   1138.09s WALL (     192 calls)

     Called by sum_band:
     sum_band:bec :      0.68s CPU      0.68s WALL (     192 calls)
     addusdens    :     10.96s CPU     12.66s WALL (      24 calls)

     Called by *egterg:
     h_psi        :    543.95s CPU    548.33s WALL (     963 calls)
     s_psi        :    234.46s CPU    235.17s WALL (     963 calls)
     g_psi        :      0.34s CPU      0.34s WALL (     763 calls)
     cdiaghg      :    198.27s CPU    202.47s WALL (     955 calls)

     Called by h_psi:
     h_psi:pot    :    543.32s CPU    547.25s WALL (     963 calls)
     h_psi:calbec :    253.96s CPU    255.86s WALL (     963 calls)
     vloc_psi     :     37.66s CPU     38.99s WALL (     963 calls)
     add_vuspsi   :    251.70s CPU    252.39s WALL (     963 calls)

     General routines
     calbec       :    376.24s CPU    379.00s WALL (    1187 calls)
     fft          :      2.72s CPU      3.09s WALL (    1634 calls)
     ffts         :      0.05s CPU      0.05s WALL (      49 calls)
     fftw         :     42.12s CPU     43.50s WALL (  300820 calls)
     interpolate  :      0.08s CPU      0.08s WALL (      25 calls)

     Parallel routines
     fft_scatt_xy :      3.03s CPU      3.13s WALL (  302503 calls)
     fft_scatt_yz :     22.26s CPU     23.23s WALL (  302503 calls)

     PWSCF        :  22m 5.64s CPU  22m26.35s WALL


   This run was terminated on:  19:18:53  19Oct2024            

=------------------------------------------------------------------------------=
   JOB DONE.
=------------------------------------------------------------------------------=
