
     Program PWSCF v.6.4.1 starts on  6Jun2024 at 18:27:57 

     This program is part of the open-source Quantum ESPRESSO suite
     for quantum simulation of materials; please cite
         "P. Giannozzi et al., J. Phys.:Condens. Matter 21 395502 (2009);
         "P. Giannozzi et al., J. Phys.:Condens. Matter 29 465901 (2017);
          URL http://www.quantum-espresso.org", 
     in publications or presentations arising from this work. More details at
     http://www.quantum-espresso.org/quote

     Parallel version (MPI), running on    32 processors

     MPI processes distributed on     1 nodes
     R & G space division:  proc/nbgrp/npool/nimage =      32
     Reading input from v16o39.rlx.in
Warning: card &CELL ignored
Warning: card     CELL_DYNAMICS  = "BFGS" ignored
Warning: card / ignored

     Current dimensions of program PWSCF are:
     Max number of different atomic species (ntypx) = 10
     Max number of k-points (npk) =  40000
     Max angular momentum in pseudopotentials (lmaxx) =  3

     Atomic positions and unit cell read from directory:
     outdir/ovac1.save/

     Message from routine readpp:
     file outdir/ovac1.save/V.pbe-spnl-kjpaw_psl.1.0.0.UPF not found
     Message from routine readpp:
     file outdir/ovac1.save/O.pbe-n-kjpaw_psl.1.0.0.UPF not found
               file V.pbe-spnl-kjpaw_psl.1.0.0.UPF: wavefunction(s)  3P 3D renormalized
               file O.pbe-n-kjpaw_psl.1.0.0.UPF: wavefunction(s)  2S 2P renormalized

     -------------------------------------------------
     Parameters for Dispersion (Grimme-D2) Correction:
     -------------------------------------------------
       atom      VdW radius       C_6     

        V          2.952        374.666
        O          2.536         24.284

     Subspace diagonalization in iterative solution of the eigenvalue problem:
     one sub-group per band group will be used
     ELPA distributed-memory algorithm (size of sub-group:  4*  4 procs)


     Parallelization info
     --------------------
     sticks:   dense  smooth     PW     G-vecs:    dense   smooth      PW
     Min         363     145     39                42943    10863    1531
     Max         367     146     40                42945    10870    1534
     Sum       11627    4657   1261              1374195   347715   49027



     bravais-lattice index     =            8
     lattice parameter (alat)  =      13.5232  a.u.
     unit-cell volume          =    4911.3436 (a.u.)^3
     number of atoms/cell      =           55
     number of atomic types    =            2
     number of electrons       =       442.00
     number of Kohn-Sham states=          265
     kinetic-energy cutoff     =      65.0000  Ry
     charge density cutoff     =     650.0000  Ry
     convergence threshold     =      1.0E-10
     mixing beta               =       0.7000
     number of iterations used =            8  plain     mixing
     Exchange-correlation      = SLA PW PBX PBC ( 1  4  3  4 0 0)
     nstep                     =          500


     celldm(1)=  13.523246  celldm(2)=   1.231081  celldm(3)=   1.613135
     celldm(4)=   0.000000  celldm(5)=   0.000000  celldm(6)=   0.000000

     crystal axes: (cart. coord. in units of alat)
               a(1) = (   1.000000   0.000000   0.000000 )  
               a(2) = (   0.000000   1.231081   0.000000 )  
               a(3) = (   0.000000   0.000000   1.613135 )  

     reciprocal axes: (cart. coord. in units 2 pi/alat)
               b(1) = (  1.000000  0.000000  0.000000 )  
               b(2) = (  0.000000  0.812294  0.000000 )  
               b(3) = (  0.000000  0.000000  0.619911 )  


     PseudoPot. # 1 for V  read from file:
     /home/mpicuntureo/pseudos/V.pbe-spnl-kjpaw_psl.1.0.0.UPF
     MD5 check sum: 069c5df6a0a9f40a694a86a6cab52b89
     Pseudo is Projector augmented-wave + core cor, Zval = 13.0
     Generated using "atomic" code by A. Dal Corso v.6.3
     Shape of augmentation charge: PSQ
     Using radial grid of 1181 points,  6 beta functions with: 
                l(1) =   0
                l(2) =   0
                l(3) =   1
                l(4) =   1
                l(5) =   2
                l(6) =   2
     Q(r) pseudized with 0 coefficients 


     PseudoPot. # 2 for O  read from file:
     /home/mpicuntureo/pseudos/O.pbe-n-kjpaw_psl.1.0.0.UPF
     MD5 check sum: e99d9cef9b487d1ca56f5b95ecd0fd7a
     Pseudo is Projector augmented-wave + core cor, Zval =  6.0
     Generated using "atomic" code by A. Dal Corso v.6.3
     Shape of augmentation charge: PSQ
     Using radial grid of 1095 points,  4 beta functions with: 
                l(1) =   0
                l(2) =   0
                l(3) =   1
                l(4) =   1
     Q(r) pseudized with 0 coefficients 


     atomic species   valence    mass     pseudopotential
        V             13.00    50.94150     V ( 1.00)
        O              6.00    15.99940     O ( 1.00)


     Simplified LDA+U calculation (l_max = 2) with parameters (eV):
     atomic species    L          U    alpha       J0     beta
        V              2     4.0000   0.0000   0.0000   0.0000



      4 Sym. Ops. (no inversion) found



   Cartesian axes

     site n.     atom                  positions (alat units)
         1           V   tau(   1) = (   0.0000000   0.2295279   1.0480382  )
         2           V   tau(   2) = (   0.2487621   0.3831034   1.3707132  )
         3           V   tau(   3) = (   0.2487621   0.3831034   0.2424221  )
         4           V   tau(   4) = (   0.0000000   0.2295279   0.5650971  )
         5           O   tau(   5) = (   0.2489359   0.3020307   1.0985489  )
         6           O   tau(   6) = (   0.0000000   0.3063429   1.3225967  )
         7           O   tau(   7) = (   0.0000000   0.3063429   0.2905386  )
         8           O   tau(   8) = (   0.2489359   0.3020307   0.5145864  )
         9           O   tau(   9) = (   0.0000000   0.0066712   0.5626689  )
        10           O   tau(  10) = (   0.2425525   0.6063339   0.2478185  )
        11           O   tau(  11) = (   0.2425525   0.6063339   1.3653168  )
        12           O   tau(  12) = (   0.2514802   0.3220576   0.0000000  )
        13           O   tau(  13) = (   0.0000000   0.2946976   0.8065677  )
        14           O   tau(  14) = (   0.0000000   0.0066712   1.0504664  )
        15           V   tau(  15) = (   0.0000000   0.8639761   1.0425347  )
        16           V   tau(  16) = (   0.2470005   0.9953311   1.3754658  )
        17           V   tau(  17) = (   0.2470005   0.9953311   0.2376695  )
        18           V   tau(  18) = (   0.0000000   0.8639761   0.5706006  )
        19           O   tau(  19) = (   0.2634745   0.9261863   1.0878105  )
        20           O   tau(  20) = (   0.0000000   0.9371397   1.3095212  )
        21           O   tau(  21) = (   0.0000000   0.9371397   0.3036141  )
        22           O   tau(  22) = (   0.2634745   0.9261863   0.5253248  )
        23           O   tau(  23) = (   0.0000000   0.6422598   0.5784198  )
        24           O   tau(  24) = (   0.2654256   1.2164123   0.2335525  )
        25           O   tau(  25) = (   0.2654256   1.2164123   1.3795829  )
        26           O   tau(  26) = (   0.2237423   0.9284556   0.0000000  )
        27           O   tau(  27) = (   0.0000000   0.9399092   0.8065677  )
        28           O   tau(  28) = (   0.0000000   0.6422598   1.0347155  )
        29           V   tau(  29) = (   0.5000000   0.2333270   1.0464379  )
        30           V   tau(  30) = (   0.7512379   0.3831034   1.3707132  )
        31           V   tau(  31) = (   0.7512379   0.3831034   0.2424221  )
        32           V   tau(  32) = (   0.5000000   0.2333270   0.5666974  )
        33           O   tau(  33) = (   0.7510641   0.3020307   1.0985489  )
        34           O   tau(  34) = (   0.5000000   0.3167070   1.3191055  )
        35           O   tau(  35) = (   0.5000000   0.3167070   0.2940298  )
        36           O   tau(  36) = (   0.7510641   0.3020307   0.5145864  )
        37           O   tau(  37) = (   0.5000000   0.0104231   0.5738330  )
        38           O   tau(  38) = (   0.7574475   0.6063339   0.2478185  )
        39           O   tau(  39) = (   0.7574475   0.6063339   1.3653168  )
        40           O   tau(  40) = (   0.7485198   0.3220576   0.0000000  )
        41           O   tau(  41) = (   0.5000000   0.3020228   0.8065677  )
        42           O   tau(  42) = (   0.5000000   0.0104231   1.0393023  )
        43           V   tau(  43) = (   0.5000000   0.8335714   1.1006414  )
        44           V   tau(  44) = (   0.7529995   0.9953311   1.3754658  )
        45           V   tau(  45) = (   0.7529995   0.9953311   0.2376695  )
        46           V   tau(  46) = (   0.5000000   0.8335714   0.5124939  )
        47           O   tau(  47) = (   0.7365255   0.9261863   1.0878105  )
        48           O   tau(  48) = (   0.5000000   0.8968463   1.3534352  )
        49           O   tau(  49) = (   0.5000000   0.8968463   0.2597001  )
        50           O   tau(  50) = (   0.7365255   0.9261863   0.5253248  )
        51           O   tau(  51) = (   0.5000000   0.6214464   0.5794007  )
        52           O   tau(  52) = (   0.7345744   1.2164123   0.2335525  )
        53           O   tau(  53) = (   0.7345744   1.2164123   1.3795829  )
        54           O   tau(  54) = (   0.7762577   0.9284556   0.0000000  )
        55           O   tau(  55) = (   0.5000000   0.6214464   1.0337346  )

     number of k points=     8  gaussian smearing, width (Ry)=  0.0500
                       cart. coord. in units 2pi/alat
        k(    1) = (   0.0000000   0.0000000   0.0000000), wk =   0.2500000
        k(    2) = (   0.0000000   0.0000000  -0.3099554), wk =   0.2500000
        k(    3) = (   0.0000000  -0.4061470   0.0000000), wk =   0.2500000
        k(    4) = (   0.0000000  -0.4061470  -0.3099554), wk =   0.2500000
        k(    5) = (  -0.5000000   0.0000000   0.0000000), wk =   0.2500000
        k(    6) = (  -0.5000000   0.0000000  -0.3099554), wk =   0.2500000
        k(    7) = (  -0.5000000  -0.4061470   0.0000000), wk =   0.2500000
        k(    8) = (  -0.5000000  -0.4061470  -0.3099554), wk =   0.2500000

     Dense  grid:  1374195 G-vectors     FFT dimensions: ( 120, 135, 180)

     Smooth grid:   347715 G-vectors     FFT dimensions: (  72,  90, 120)

     Estimated max dynamical RAM per process >     340.41 MB

     Estimated total dynamical RAM >      10.64 GB

     Check: negative core charge=   -0.000001

     The initial density is read from file :
     outdir/ovac1.save/charge-density


     negative rho (up, down):  1.520E-03 0.000E+00
     Number of +U iterations with fixed ns =  0
     Starting occupations:
 --- enter write_ns ---
 LDA+U parameters:
U( 1)     =  4.00000000
alpha( 1) =  0.00000000
atom    1   Tr[ns(na)] =   4.57513
    eigenvalues: 
  0.321  0.468  0.468  0.491  0.540
    eigenvectors:
  0.000  0.127  0.000  0.561  0.312
  0.997  0.000  0.003  0.000  0.000
  0.000  0.771  0.000  0.224  0.006
  0.000  0.102  0.000  0.215  0.683
  0.003  0.000  0.997  0.000  0.000
    occupations:
  0.503 -0.000  0.005  0.025  0.000
 -0.000  0.322 -0.000  0.000  0.007
  0.005 -0.000  0.473 -0.010  0.000
  0.025  0.000 -0.010  0.522 -0.000
  0.000  0.007  0.000 -0.000  0.468
atom    2   Tr[ns(na)] =   4.57203
    eigenvalues: 
  0.324  0.465  0.468  0.490  0.540
    eigenvectors:
  0.000  0.021  0.061  0.600  0.318
  0.994  0.003  0.003  0.000  0.000
  0.001  0.170  0.649  0.169  0.011
  0.000  0.010  0.092  0.230  0.668
  0.006  0.796  0.196  0.000  0.002
    occupations:
  0.504 -0.001  0.003  0.025  0.002
 -0.001  0.324 -0.004 -0.000  0.011
  0.003 -0.004  0.472 -0.011 -0.001
  0.025 -0.000 -0.011  0.521  0.003
  0.002  0.011 -0.001  0.003  0.465
atom    3   Tr[ns(na)] =   4.57203
    eigenvalues: 
  0.324  0.465  0.468  0.490  0.540
    eigenvectors:
  0.000  0.021  0.061  0.600  0.318
  0.994  0.003  0.003  0.000  0.000
  0.001  0.170  0.649  0.169  0.011
  0.000  0.010  0.092  0.230  0.668
  0.006  0.796  0.196  0.000  0.002
    occupations:
  0.504  0.001 -0.003  0.025  0.002
  0.001  0.324 -0.004  0.000 -0.011
 -0.003 -0.004  0.472  0.011  0.001
  0.025  0.000  0.011  0.521  0.003
  0.002 -0.011  0.001  0.003  0.465
atom    4   Tr[ns(na)] =   4.57513
    eigenvalues: 
  0.321  0.468  0.468  0.491  0.540
    eigenvectors:
  0.000  0.127  0.000  0.561  0.312
  0.997  0.000  0.003  0.000  0.000
  0.000  0.771  0.000  0.224  0.006
  0.000  0.102  0.000  0.215  0.683
  0.003  0.000  0.997  0.000  0.000
    occupations:
  0.503 -0.000 -0.005  0.025  0.000
 -0.000  0.322 -0.000  0.000 -0.007
 -0.005 -0.000  0.473  0.010  0.000
  0.025  0.000  0.010  0.522 -0.000
  0.000 -0.007  0.000 -0.000  0.468
atom   15   Tr[ns(na)] =   4.57139
    eigenvalues: 
  0.348  0.449  0.458  0.484  0.546
    eigenvectors:
  0.000  0.000  0.552  0.031  0.417
  0.985  0.015  0.000  0.000  0.000
  0.000  0.000  0.066  0.933  0.001
  0.000  0.000  0.382  0.036  0.582
  0.015  0.985  0.000  0.000  0.000
    occupations:
  0.496 -0.000  0.006  0.042  0.000
 -0.000  0.350 -0.000  0.000  0.012
  0.006 -0.000  0.482 -0.003  0.000
  0.042  0.000 -0.003  0.510 -0.000
  0.000  0.012  0.000 -0.000  0.448
atom   16   Tr[ns(na)] =   4.59392
    eigenvalues: 
  0.355  0.451  0.467  0.482  0.542
    eigenvectors:
  0.019  0.378  0.002  0.226  0.375
  0.956  0.016  0.017  0.011  0.000
  0.003  0.348  0.205  0.443  0.001
  0.008  0.171  0.007  0.205  0.609
  0.014  0.086  0.769  0.116  0.015
    occupations:
  0.490  0.015  0.011  0.038 -0.013
  0.015  0.360  0.008 -0.009  0.012
  0.011  0.008  0.468 -0.006 -0.002
  0.038 -0.009 -0.006  0.512 -0.002
 -0.013  0.012 -0.002 -0.002  0.467
atom   17   Tr[ns(na)] =   4.59392
    eigenvalues: 
  0.355  0.451  0.467  0.482  0.542
    eigenvectors:
  0.019  0.378  0.002  0.226  0.375
  0.956  0.016  0.017  0.011  0.000
  0.003  0.348  0.205  0.443  0.001
  0.008  0.171  0.007  0.205  0.609
  0.014  0.086  0.769  0.116  0.015
    occupations:
  0.490 -0.015 -0.011  0.038 -0.013
 -0.015  0.360  0.008  0.009 -0.012
 -0.011  0.008  0.468  0.006  0.002
  0.038  0.009  0.006  0.512 -0.002
 -0.013 -0.012  0.002 -0.002  0.467
atom   18   Tr[ns(na)] =   4.57139
    eigenvalues: 
  0.348  0.449  0.458  0.484  0.546
    eigenvectors:
  0.000  0.000  0.552  0.031  0.417
  0.985  0.015  0.000  0.000  0.000
  0.000  0.000  0.066  0.933  0.001
  0.000  0.000  0.382  0.036  0.582
  0.015  0.985  0.000  0.000  0.000
    occupations:
  0.496 -0.000 -0.006  0.042  0.000
 -0.000  0.350 -0.000  0.000 -0.012
 -0.006 -0.000  0.482  0.003  0.000
  0.042  0.000  0.003  0.510 -0.000
  0.000 -0.012  0.000 -0.000  0.448
atom   29   Tr[ns(na)] =   4.57306
    eigenvalues: 
  0.320  0.468  0.470  0.485  0.544
    eigenvectors:
  0.000  0.000  0.118  0.553  0.329
  1.000  0.000  0.000  0.000  0.000
  0.000  0.000  0.828  0.172  0.000
  0.000  0.000  0.054  0.275  0.671
  0.000  1.000  0.000  0.000  0.000
    occupations:
  0.502 -0.000  0.005  0.029  0.000
 -0.000  0.321 -0.000  0.000  0.002
  0.005 -0.000  0.473 -0.003  0.000
  0.029  0.000 -0.003  0.523 -0.000
  0.000  0.002  0.000 -0.000  0.468
atom   30   Tr[ns(na)] =   4.57203
    eigenvalues: 
  0.324  0.465  0.468  0.490  0.540
    eigenvectors:
  0.000  0.021  0.061  0.600  0.318
  0.994  0.003  0.003  0.000  0.000
  0.001  0.170  0.649  0.169  0.011
  0.000  0.010  0.092  0.230  0.668
  0.006  0.796  0.196  0.000  0.002
    occupations:
  0.504  0.001  0.003  0.025 -0.002
  0.001  0.324  0.004  0.000  0.011
  0.003  0.004  0.472 -0.011  0.001
  0.025  0.000 -0.011  0.521 -0.003
 -0.002  0.011  0.001 -0.003  0.465
atom   31   Tr[ns(na)] =   4.57203
    eigenvalues: 
  0.324  0.465  0.468  0.490  0.540
    eigenvectors:
  0.000  0.021  0.061  0.600  0.318
  0.994  0.003  0.003  0.000  0.000
  0.001  0.170  0.649  0.169  0.011
  0.000  0.010  0.092  0.230  0.668
  0.006  0.796  0.196  0.000  0.002
    occupations:
  0.504 -0.001 -0.003  0.025 -0.002
 -0.001  0.324  0.004 -0.000 -0.011
 -0.003  0.004  0.472  0.011 -0.001
  0.025 -0.000  0.011  0.521 -0.003
 -0.002 -0.011 -0.001 -0.003  0.465
atom   32   Tr[ns(na)] =   4.57306
    eigenvalues: 
  0.320  0.468  0.470  0.485  0.544
    eigenvectors:
  0.000  0.000  0.118  0.553  0.329
  1.000  0.000  0.000  0.000  0.000
  0.000  0.000  0.828  0.172  0.000
  0.000  0.000  0.054  0.275  0.671
  0.000  1.000  0.000  0.000  0.000
    occupations:
  0.502 -0.000 -0.005  0.029  0.000
 -0.000  0.321 -0.000  0.000 -0.002
 -0.005 -0.000  0.473  0.003  0.000
  0.029  0.000  0.003  0.523 -0.000
  0.000 -0.002  0.000 -0.000  0.468
atom   43   Tr[ns(na)] =   4.53668
    eigenvalues: 
  0.344  0.378  0.494  0.495  0.557
    eigenvectors:
  0.000  0.357  0.000  0.642  0.001
  0.955  0.000  0.045  0.000  0.000
  0.000  0.529  0.000  0.274  0.197
  0.000  0.115  0.000  0.083  0.802
  0.045  0.000  0.955  0.000  0.000
    occupations:
  0.453 -0.000 -0.052  0.022  0.000
 -0.000  0.351 -0.000  0.000 -0.031
 -0.052 -0.000  0.445  0.053  0.000
  0.022  0.000  0.053  0.531 -0.000
  0.000 -0.031  0.000 -0.000  0.487
atom   44   Tr[ns(na)] =   4.59392
    eigenvalues: 
  0.355  0.451  0.467  0.482  0.542
    eigenvectors:
  0.019  0.378  0.002  0.226  0.375
  0.956  0.016  0.017  0.011  0.000
  0.003  0.348  0.205  0.443  0.001
  0.008  0.171  0.007  0.205  0.609
  0.014  0.086  0.769  0.116  0.015
    occupations:
  0.490 -0.015  0.011  0.038  0.013
 -0.015  0.360 -0.008  0.009  0.012
  0.011 -0.008  0.468 -0.006  0.002
  0.038  0.009 -0.006  0.512  0.002
  0.013  0.012  0.002  0.002  0.467
atom   45   Tr[ns(na)] =   4.59392
    eigenvalues: 
  0.355  0.451  0.467  0.482  0.542
    eigenvectors:
  0.019  0.378  0.002  0.226  0.375
  0.956  0.016  0.017  0.011  0.000
  0.003  0.348  0.205  0.443  0.001
  0.008  0.171  0.007  0.205  0.609
  0.014  0.086  0.769  0.116  0.015
    occupations:
  0.490  0.015 -0.011  0.038  0.013
  0.015  0.360 -0.008 -0.009 -0.012
 -0.011 -0.008  0.468  0.006 -0.002
  0.038 -0.009  0.006  0.512  0.002
  0.013 -0.012 -0.002  0.002  0.467
atom   46   Tr[ns(na)] =   4.53668
    eigenvalues: 
  0.344  0.378  0.494  0.495  0.557
    eigenvectors:
  0.000  0.357  0.000  0.642  0.001
  0.955  0.000  0.045  0.000  0.000
  0.000  0.529  0.000  0.274  0.197
  0.000  0.115  0.000  0.083  0.802
  0.045  0.000  0.955  0.000  0.000
    occupations:
  0.453 -0.000  0.052  0.022  0.000
 -0.000  0.351 -0.000  0.000  0.031
  0.052 -0.000  0.445 -0.053  0.000
  0.022  0.000 -0.053  0.531 -0.000
  0.000  0.031  0.000 -0.000  0.487
N of occupied +U levels =   73.176330
 --- exit write_ns ---
 Atomic wfc used for LDA+U Projector are NOT orthogonalized
     Cannot read wfcs: file not found
     Starting wfcs are  316 randomized atomic wfcs
     Checking if some PAW data can be deallocated... 

     total cpu time spent up to now is       77.1 secs

     Self-consistent Calculation

     iteration #  1     ecut=    65.00 Ry     beta= 0.70
     Davidson diagonalization with overlap
     ethr =  1.00E-05,  avg # of iterations = 13.6
 --- enter write_ns ---
 LDA+U parameters:
U( 1)     =  4.00000000
alpha( 1) =  0.00000000
atom    1   Tr[ns(na)] =   4.59665
    eigenvalues: 
  0.325  0.470  0.471  0.492  0.541
    eigenvectors:
  0.000  0.150  0.000  0.540  0.310
  0.997  0.000  0.003  0.000  0.000
  0.000  0.735  0.000  0.259  0.006
  0.000  0.115  0.000  0.201  0.684
  0.003  0.000  0.997  0.000  0.000
    occupations:
  0.504 -0.000  0.005  0.026  0.000
 -0.000  0.325 -0.000  0.000  0.008
  0.005 -0.000  0.476 -0.009  0.000
  0.026  0.000 -0.009  0.523 -0.000
  0.000  0.008  0.000 -0.000  0.471
atom    2   Tr[ns(na)] =   4.60541
    eigenvalues: 
  0.327  0.470  0.472  0.490  0.543
    eigenvectors:
  0.000  0.051  0.068  0.568  0.313
  0.993  0.003  0.004  0.000  0.000
  0.000  0.300  0.457  0.230  0.012
  0.000  0.033  0.093  0.202  0.672
  0.006  0.613  0.378  0.000  0.002
    occupations:
  0.505 -0.001  0.003  0.027  0.002
 -0.001  0.328 -0.003 -0.000  0.011
  0.003 -0.003  0.476 -0.011 -0.001
  0.027 -0.000 -0.011  0.524  0.003
  0.002  0.011 -0.001  0.003  0.470
atom    3   Tr[ns(na)] =   4.60541
    eigenvalues: 
  0.327  0.470  0.472  0.490  0.543
    eigenvectors:
  0.000  0.051  0.068  0.568  0.313
  0.993  0.003  0.004  0.000  0.000
  0.000  0.300  0.457  0.230  0.012
  0.000  0.033  0.093  0.202  0.672
  0.006  0.613  0.378  0.000  0.002
    occupations:
  0.505  0.001 -0.003  0.027  0.002
  0.001  0.328 -0.003  0.000 -0.011
 -0.003 -0.003  0.476  0.011  0.001
  0.027  0.000  0.011  0.524  0.003
  0.002 -0.011  0.001  0.003  0.470
atom    4   Tr[ns(na)] =   4.59665
    eigenvalues: 
  0.325  0.470  0.471  0.492  0.541
    eigenvectors:
  0.000  0.150  0.000  0.540  0.310
  0.997  0.000  0.003  0.000  0.000
  0.000  0.735  0.000  0.259  0.006
  0.000  0.115  0.000  0.201  0.684
  0.003  0.000  0.997  0.000  0.000
    occupations:
  0.504 -0.000 -0.005  0.026  0.000
 -0.000  0.325 -0.000  0.000 -0.008
 -0.005 -0.000  0.476  0.009  0.000
  0.026  0.000  0.009  0.523 -0.000
  0.000 -0.008  0.000 -0.000  0.471
atom   15   Tr[ns(na)] =   4.58625
    eigenvalues: 
  0.348  0.452  0.459  0.486  0.548
    eigenvectors:
  0.000  0.000  0.565  0.027  0.409
  0.987  0.013  0.000  0.000  0.000
  0.000  0.000  0.056  0.943  0.001
  0.000  0.000  0.380  0.030  0.591
  0.013  0.987  0.000  0.000  0.000
    occupations:
  0.496 -0.000  0.006  0.043  0.000
 -0.000  0.349 -0.000  0.000  0.012
  0.006 -0.000  0.484 -0.002  0.000
  0.043  0.000 -0.002  0.513 -0.000
  0.000  0.012  0.000 -0.000  0.451
atom   16   Tr[ns(na)] =   4.57212
    eigenvalues: 
  0.349  0.450  0.465  0.480  0.541
    eigenvectors:
  0.018  0.371  0.002  0.235  0.374
  0.961  0.013  0.014  0.012  0.000
  0.003  0.368  0.181  0.447  0.001
  0.007  0.168  0.008  0.208  0.610
  0.011  0.080  0.795  0.098  0.015
    occupations:
  0.490  0.015  0.011  0.038 -0.012
  0.015  0.354  0.008 -0.009  0.011
  0.011  0.008  0.466 -0.006 -0.001
  0.038 -0.009 -0.006  0.511 -0.002
 -0.012  0.011 -0.001 -0.002  0.465
atom   17   Tr[ns(na)] =   4.57212
    eigenvalues: 
  0.349  0.450  0.465  0.480  0.541
    eigenvectors:
  0.018  0.371  0.002  0.235  0.374
  0.961  0.013  0.014  0.012  0.000
  0.003  0.368  0.181  0.447  0.001
  0.007  0.168  0.008  0.208  0.610
  0.011  0.080  0.795  0.098  0.015
    occupations:
  0.490 -0.015 -0.011  0.038 -0.012
 -0.015  0.354  0.008  0.009 -0.011
 -0.011  0.008  0.466  0.006  0.001
  0.038  0.009  0.006  0.511 -0.002
 -0.012 -0.011  0.001 -0.002  0.465
atom   18   Tr[ns(na)] =   4.58625
    eigenvalues: 
  0.348  0.452  0.459  0.486  0.548
    eigenvectors:
  0.000  0.000  0.565  0.027  0.409
  0.987  0.013  0.000  0.000  0.000
  0.000  0.000  0.056  0.943  0.001
  0.000  0.000  0.380  0.030  0.591
  0.013  0.987  0.000  0.000  0.000
    occupations:
  0.496 -0.000 -0.006  0.043  0.000
 -0.000  0.349 -0.000  0.000 -0.012
 -0.006 -0.000  0.484  0.002  0.000
  0.043  0.000  0.002  0.513 -0.000
  0.000 -0.012  0.000 -0.000  0.451
atom   29   Tr[ns(na)] =   4.60870
    eigenvalues: 
  0.323  0.473  0.474  0.486  0.547
    eigenvectors:
  0.000  0.000  0.214  0.461  0.325
  1.000  0.000  0.000  0.000  0.000
  0.000  0.000  0.688  0.312  0.000
  0.000  0.000  0.098  0.227  0.675
  0.000  1.000  0.000  0.000  0.000
    occupations:
  0.503 -0.000  0.005  0.030  0.000
 -0.000  0.323 -0.000  0.000  0.002
  0.005 -0.000  0.478 -0.003  0.000
  0.030  0.000 -0.003  0.526 -0.000
  0.000  0.002  0.000 -0.000  0.473
atom   30   Tr[ns(na)] =   4.60541
    eigenvalues: 
  0.327  0.470  0.472  0.490  0.543
    eigenvectors:
  0.000  0.051  0.068  0.568  0.313
  0.993  0.003  0.004  0.000  0.000
  0.000  0.300  0.457  0.230  0.012
  0.000  0.033  0.093  0.202  0.672
  0.006  0.613  0.378  0.000  0.002
    occupations:
  0.505  0.001  0.003  0.027 -0.002
  0.001  0.328  0.003  0.000  0.011
  0.003  0.003  0.476 -0.011  0.001
  0.027  0.000 -0.011  0.524 -0.003
 -0.002  0.011  0.001 -0.003  0.470
atom   31   Tr[ns(na)] =   4.60541
    eigenvalues: 
  0.327  0.470  0.472  0.490  0.543
    eigenvectors:
  0.000  0.051  0.068  0.568  0.313
  0.993  0.003  0.004  0.000  0.000
  0.000  0.300  0.457  0.230  0.012
  0.000  0.033  0.093  0.202  0.672
  0.006  0.613  0.378  0.000  0.002
    occupations:
  0.505 -0.001 -0.003  0.027 -0.002
 -0.001  0.328  0.003 -0.000 -0.011
 -0.003  0.003  0.476  0.011 -0.001
  0.027 -0.000  0.011  0.524 -0.003
 -0.002 -0.011 -0.001 -0.003  0.470
atom   32   Tr[ns(na)] =   4.60870
    eigenvalues: 
  0.323  0.473  0.474  0.486  0.547
    eigenvectors:
  0.000  0.000  0.214  0.461  0.325
  1.000  0.000  0.000  0.000  0.000
  0.000  0.000  0.688  0.312  0.000
  0.000  0.000  0.098  0.227  0.675
  0.000  1.000  0.000  0.000  0.000
    occupations:
  0.503 -0.000 -0.005  0.030  0.000
 -0.000  0.323 -0.000  0.000 -0.002
 -0.005 -0.000  0.478  0.003  0.000
  0.030  0.000  0.003  0.526 -0.000
  0.000 -0.002  0.000 -0.000  0.473
atom   43   Tr[ns(na)] =   4.52709
    eigenvalues: 
  0.342  0.377  0.493  0.495  0.556
    eigenvectors:
  0.000  0.350  0.000  0.648  0.001
  0.956  0.000  0.044  0.000  0.000
  0.000  0.534  0.000  0.269  0.197
  0.000  0.115  0.000  0.083  0.802
  0.044  0.000  0.956  0.000  0.000
    occupations:
  0.454 -0.000 -0.052  0.022  0.000
 -0.000  0.349 -0.000  0.000 -0.031
 -0.052 -0.000  0.444  0.054  0.000
  0.022  0.000  0.054  0.530 -0.000
  0.000 -0.031  0.000 -0.000  0.487
atom   44   Tr[ns(na)] =   4.57212
    eigenvalues: 
  0.349  0.450  0.465  0.480  0.541
    eigenvectors:
  0.018  0.371  0.002  0.235  0.374
  0.961  0.013  0.014  0.012  0.000
  0.003  0.368  0.181  0.447  0.001
  0.007  0.168  0.008  0.208  0.610
  0.011  0.080  0.795  0.098  0.015
    occupations:
  0.490 -0.015  0.011  0.038  0.012
 -0.015  0.354 -0.008  0.009  0.011
  0.011 -0.008  0.466 -0.006  0.001
  0.038  0.009 -0.006  0.511  0.002
  0.012  0.011  0.001  0.002  0.465
atom   45   Tr[ns(na)] =   4.57212
    eigenvalues: 
  0.349  0.450  0.465  0.480  0.541
    eigenvectors:
  0.018  0.371  0.002  0.235  0.374
  0.961  0.013  0.014  0.012  0.000
  0.003  0.368  0.181  0.447  0.001
  0.007  0.168  0.008  0.208  0.610
  0.011  0.080  0.795  0.098  0.015
    occupations:
  0.490  0.015 -0.011  0.038  0.012
  0.015  0.354 -0.008 -0.009 -0.011
 -0.011 -0.008  0.466  0.006 -0.001
  0.038 -0.009  0.006  0.511  0.002
  0.012 -0.011 -0.001  0.002  0.465
atom   46   Tr[ns(na)] =   4.52709
    eigenvalues: 
  0.342  0.377  0.493  0.495  0.556
    eigenvectors:
  0.000  0.350  0.000  0.648  0.001
  0.956  0.000  0.044  0.000  0.000
  0.000  0.534  0.000  0.269  0.197
  0.000  0.115  0.000  0.083  0.802
  0.044  0.000  0.956  0.000  0.000
    occupations:
  0.454 -0.000  0.052  0.022  0.000
 -0.000  0.349 -0.000  0.000  0.031
  0.052 -0.000  0.444 -0.054  0.000
  0.022  0.000 -0.054  0.530 -0.000
  0.000  0.031  0.000 -0.000  0.487
N of occupied +U levels =   73.347516
 --- exit write_ns ---

     negative rho (up, down):  1.607E-03 0.000E+00

     total cpu time spent up to now is     1268.2 secs

     total energy              =   -5047.69430295 Ry
     Harris-Foulkes estimate   =   -5047.71232964 Ry
     estimated scf accuracy    <       0.02189050 Ry

     iteration #  2     ecut=    65.00 Ry     beta= 0.70
     Davidson diagonalization with overlap
     c_bands:  3 eigenvalues not converged
     c_bands:  5 eigenvalues not converged
     ethr =  4.95E-06,  avg # of iterations = 12.0

     negative rho (up, down):  1.581E-03 0.000E+00

     total cpu time spent up to now is     1976.4 secs

     total energy              =   -5047.65251021 Ry
     Harris-Foulkes estimate   =   -5047.77312521 Ry
     estimated scf accuracy    <       0.73012287 Ry

     iteration #  3     ecut=    65.00 Ry     beta= 0.70
     Davidson diagonalization with overlap
     ethr =  4.95E-06,  avg # of iterations =  6.0

     negative rho (up, down):  1.592E-03 0.000E+00

     total cpu time spent up to now is     2664.2 secs

     total energy              =   -5047.70465938 Ry
     Harris-Foulkes estimate   =   -5047.71160389 Ry
     estimated scf accuracy    <       0.02771883 Ry

     iteration #  4     ecut=    65.00 Ry     beta= 0.70
     Davidson diagonalization with overlap
     ethr =  4.95E-06,  avg # of iterations =  3.9

     negative rho (up, down):  1.596E-03 0.000E+00

     total cpu time spent up to now is     2905.6 secs

     total energy              =   -5047.70709809 Ry
     Harris-Foulkes estimate   =   -5047.70829357 Ry
     estimated scf accuracy    <       0.00331473 Ry

     iteration #  5     ecut=    65.00 Ry     beta= 0.70
     Davidson diagonalization with overlap
     ethr =  7.50E-07,  avg # of iterations =  5.2

     negative rho (up, down):  1.596E-03 0.000E+00

     total cpu time spent up to now is     3408.3 secs

     total energy              =   -5047.70814610 Ry
     Harris-Foulkes estimate   =   -5047.70995611 Ry
     estimated scf accuracy    <       0.01022473 Ry

     iteration #  6     ecut=    65.00 Ry     beta= 0.70
     Davidson diagonalization with overlap
     ethr =  7.50E-07,  avg # of iterations =  9.8

     negative rho (up, down):  1.615E-03 0.000E+00

     total cpu time spent up to now is     3712.0 secs

     total energy              =   -5047.70866449 Ry
     Harris-Foulkes estimate   =   -5047.70932403 Ry
     estimated scf accuracy    <       0.00379620 Ry

     iteration #  7     ecut=    65.00 Ry     beta= 0.70
     Davidson diagonalization with overlap
     ethr =  7.50E-07,  avg # of iterations =  4.5

     negative rho (up, down):  1.615E-03 0.000E+00

     total cpu time spent up to now is     3955.8 secs

     total energy              =   -5047.70889189 Ry
     Harris-Foulkes estimate   =   -5047.70897992 Ry
     estimated scf accuracy    <       0.00072242 Ry

     iteration #  8     ecut=    65.00 Ry     beta= 0.70
     Davidson diagonalization with overlap
     ethr =  1.63E-07,  avg # of iterations =  6.8

     negative rho (up, down):  1.616E-03 0.000E+00

     total cpu time spent up to now is     4279.3 secs

     total energy              =   -5047.70898653 Ry
     Harris-Foulkes estimate   =   -5047.70902411 Ry
     estimated scf accuracy    <       0.00027930 Ry

     iteration #  9     ecut=    65.00 Ry     beta= 0.70
     Davidson diagonalization with overlap
     ethr =  6.32E-08,  avg # of iterations =  3.4

     negative rho (up, down):  1.616E-03 0.000E+00

     total cpu time spent up to now is     4520.5 secs

     total energy              =   -5047.70900467 Ry
     Harris-Foulkes estimate   =   -5047.70901105 Ry
     estimated scf accuracy    <       0.00006496 Ry

     iteration # 10     ecut=    65.00 Ry     beta= 0.70
     Davidson diagonalization with overlap
     ethr =  1.47E-08,  avg # of iterations =  5.2

     negative rho (up, down):  1.615E-03 0.000E+00

     total cpu time spent up to now is     4926.0 secs

     total energy              =   -5047.70901880 Ry
     Harris-Foulkes estimate   =   -5047.70902510 Ry
     estimated scf accuracy    <       0.00003986 Ry

     iteration # 11     ecut=    65.00 Ry     beta= 0.70
     Davidson diagonalization with overlap
     ethr =  9.02E-09,  avg # of iterations =  4.0

     negative rho (up, down):  1.613E-03 0.000E+00

     total cpu time spent up to now is     5168.0 secs

     total energy              =   -5047.70902191 Ry
     Harris-Foulkes estimate   =   -5047.70902429 Ry
     estimated scf accuracy    <       0.00001028 Ry

     iteration # 12     ecut=    65.00 Ry     beta= 0.70
     Davidson diagonalization with overlap
     ethr =  2.32E-09,  avg # of iterations =  4.9

     negative rho (up, down):  1.613E-03 0.000E+00

     total cpu time spent up to now is     5558.7 secs

     total energy              =   -5047.70902290 Ry
     Harris-Foulkes estimate   =   -5047.70902624 Ry
     estimated scf accuracy    <       0.00001550 Ry

     iteration # 13     ecut=    65.00 Ry     beta= 0.70
     Davidson diagonalization with overlap
     ethr =  2.32E-09,  avg # of iterations =  5.9

     negative rho (up, down):  1.613E-03 0.000E+00

     total cpu time spent up to now is     5822.8 secs

     total energy              =   -5047.70902328 Ry
     Harris-Foulkes estimate   =   -5047.70902530 Ry
     estimated scf accuracy    <       0.00001064 Ry

     iteration # 14     ecut=    65.00 Ry     beta= 0.70
     Davidson diagonalization with overlap
     ethr =  2.32E-09,  avg # of iterations =  2.1

     negative rho (up, down):  1.613E-03 0.000E+00

     total cpu time spent up to now is     6056.1 secs

     total energy              =   -5047.70902423 Ry
     Harris-Foulkes estimate   =   -5047.70902449 Ry
     estimated scf accuracy    <       0.00000108 Ry

     iteration # 15     ecut=    65.00 Ry     beta= 0.70
     Davidson diagonalization with overlap
     ethr =  2.45E-10,  avg # of iterations =  5.2

     negative rho (up, down):  1.613E-03 0.000E+00

     total cpu time spent up to now is     6545.1 secs

     total energy              =   -5047.70902460 Ry
     Harris-Foulkes estimate   =   -5047.70902507 Ry
     estimated scf accuracy    <       0.00000275 Ry

     iteration # 16     ecut=    65.00 Ry     beta= 0.70
     Davidson diagonalization with overlap
     ethr =  2.45E-10,  avg # of iterations =  6.5

     negative rho (up, down):  1.613E-03 0.000E+00

     total cpu time spent up to now is     6803.4 secs

     total energy              =   -5047.70902462 Ry
     Harris-Foulkes estimate   =   -5047.70902487 Ry
     estimated scf accuracy    <       0.00000103 Ry

     iteration # 17     ecut=    65.00 Ry     beta= 0.70
     Davidson diagonalization with overlap
     ethr =  2.33E-10,  avg # of iterations =  4.0

     negative rho (up, down):  1.612E-03 0.000E+00

     total cpu time spent up to now is     7111.9 secs

     total energy              =   -5047.70902475 Ry
     Harris-Foulkes estimate   =   -5047.70902491 Ry
     estimated scf accuracy    <       0.00000092 Ry

     iteration # 18     ecut=    65.00 Ry     beta= 0.70
     Davidson diagonalization with overlap
     ethr =  2.07E-10,  avg # of iterations =  5.0

     negative rho (up, down):  1.612E-03 0.000E+00

     total cpu time spent up to now is     7359.6 secs

     total energy              =   -5047.70902482 Ry
     Harris-Foulkes estimate   =   -5047.70902489 Ry
     estimated scf accuracy    <       0.00000050 Ry

     iteration # 19     ecut=    65.00 Ry     beta= 0.70
     Davidson diagonalization with overlap
     ethr =  1.14E-10,  avg # of iterations =  3.4

     negative rho (up, down):  1.612E-03 0.000E+00

     total cpu time spent up to now is     7595.7 secs

     total energy              =   -5047.70902481 Ry
     Harris-Foulkes estimate   =   -5047.70902486 Ry
     estimated scf accuracy    <       0.00000012 Ry

     iteration # 20     ecut=    65.00 Ry     beta= 0.70
     Davidson diagonalization with overlap
     ethr =  2.63E-11,  avg # of iterations =  5.1

     negative rho (up, down):  1.612E-03 0.000E+00

     total cpu time spent up to now is     8059.9 secs

     total energy              =   -5047.70902480 Ry
     Harris-Foulkes estimate   =   -5047.70902492 Ry
     estimated scf accuracy    <       0.00000071 Ry

     iteration # 21     ecut=    65.00 Ry     beta= 0.70
     Davidson diagonalization with overlap
     ethr =  2.63E-11,  avg # of iterations =  6.0

     negative rho (up, down):  1.612E-03 0.000E+00

     total cpu time spent up to now is     8400.7 secs

     total energy              =   -5047.70902486 Ry
     Harris-Foulkes estimate   =   -5047.70902487 Ry
     estimated scf accuracy    <       0.00000011 Ry

     iteration # 22     ecut=    65.00 Ry     beta= 0.70
     Davidson diagonalization with overlap
     ethr =  2.47E-11,  avg # of iterations =  3.5

     negative rho (up, down):  1.612E-03 0.000E+00

     total cpu time spent up to now is     8639.6 secs

     total energy              =   -5047.70902486 Ry
     Harris-Foulkes estimate   =   -5047.70902487 Ry
     estimated scf accuracy    <       0.00000003 Ry

     iteration # 23     ecut=    65.00 Ry     beta= 0.70
     Davidson diagonalization with overlap
     ethr =  7.05E-12,  avg # of iterations =  5.2

     negative rho (up, down):  1.612E-03 0.000E+00

     total cpu time spent up to now is     8922.8 secs

     total energy              =   -5047.70902486 Ry
     Harris-Foulkes estimate   =   -5047.70902487 Ry
     estimated scf accuracy    <       0.00000003 Ry

     iteration # 24     ecut=    65.00 Ry     beta= 0.70
     Davidson diagonalization with overlap
     ethr =  6.24E-12,  avg # of iterations =  5.2

     negative rho (up, down):  1.612E-03 0.000E+00

     total cpu time spent up to now is     9166.9 secs

     total energy              =   -5047.70902487 Ry
     Harris-Foulkes estimate   =   -5047.70902487 Ry
     estimated scf accuracy    <       0.00000001 Ry

     iteration # 25     ecut=    65.00 Ry     beta= 0.70
     Davidson diagonalization with overlap
     ethr =  2.75E-12,  avg # of iterations =  4.5

     negative rho (up, down):  1.612E-03 0.000E+00

     total cpu time spent up to now is     9426.2 secs

     total energy              =   -5047.70902487 Ry
     Harris-Foulkes estimate   =   -5047.70902487 Ry
     estimated scf accuracy    <          5.3E-09 Ry

     iteration # 26     ecut=    65.00 Ry     beta= 0.70
     Davidson diagonalization with overlap
     ethr =  1.20E-12,  avg # of iterations =  5.0

     negative rho (up, down):  1.612E-03 0.000E+00

     total cpu time spent up to now is     9877.9 secs

     total energy              =   -5047.70902487 Ry
     Harris-Foulkes estimate   =   -5047.70902487 Ry
     estimated scf accuracy    <       0.00000001 Ry

     iteration # 27     ecut=    65.00 Ry     beta= 0.70
     Davidson diagonalization with overlap
     ethr =  1.20E-12,  avg # of iterations =  6.4

     negative rho (up, down):  1.612E-03 0.000E+00

     total cpu time spent up to now is    10258.1 secs

     total energy              =   -5047.70902487 Ry
     Harris-Foulkes estimate   =   -5047.70902487 Ry
     estimated scf accuracy    <       0.00000001 Ry

     iteration # 28     ecut=    65.00 Ry     beta= 0.70
     Davidson diagonalization with overlap
     ethr =  1.20E-12,  avg # of iterations =  2.1

     negative rho (up, down):  1.612E-03 0.000E+00

     total cpu time spent up to now is    10493.2 secs

     total energy              =   -5047.70902487 Ry
     Harris-Foulkes estimate   =   -5047.70902487 Ry
     estimated scf accuracy    <          1.4E-09 Ry

     iteration # 29     ecut=    65.00 Ry     beta= 0.70
     Davidson diagonalization with overlap
     ethr =  3.16E-13,  avg # of iterations =  4.6

     negative rho (up, down):  1.612E-03 0.000E+00

     total cpu time spent up to now is    10951.3 secs

     total energy              =   -5047.70902487 Ry
     Harris-Foulkes estimate   =   -5047.70902487 Ry
     estimated scf accuracy    <          3.9E-09 Ry

     iteration # 30     ecut=    65.00 Ry     beta= 0.70
     Davidson diagonalization with overlap
     ethr =  3.16E-13,  avg # of iterations =  6.2

     negative rho (up, down):  1.612E-03 0.000E+00

     total cpu time spent up to now is    11244.2 secs

     total energy              =   -5047.70902487 Ry
     Harris-Foulkes estimate   =   -5047.70902487 Ry
     estimated scf accuracy    <          2.9E-09 Ry

     iteration # 31     ecut=    65.00 Ry     beta= 0.70
     Davidson diagonalization with overlap
     ethr =  3.16E-13,  avg # of iterations =  5.1

     negative rho (up, down):  1.612E-03 0.000E+00

     total cpu time spent up to now is    11501.9 secs

     total energy              =   -5047.70902487 Ry
     Harris-Foulkes estimate   =   -5047.70902487 Ry
     estimated scf accuracy    <          1.2E-09 Ry

     iteration # 32     ecut=    65.00 Ry     beta= 0.70
     Davidson diagonalization with overlap
     ethr =  2.64E-13,  avg # of iterations =  4.2

     negative rho (up, down):  1.612E-03 0.000E+00

     total cpu time spent up to now is    11751.7 secs

     total energy              =   -5047.70902487 Ry
     Harris-Foulkes estimate   =   -5047.70902487 Ry
     estimated scf accuracy    <          7.7E-10 Ry

     iteration # 33     ecut=    65.00 Ry     beta= 0.70
     Davidson diagonalization with overlap
     ethr =  1.74E-13,  avg # of iterations =  2.6

     negative rho (up, down):  1.612E-03 0.000E+00

     total cpu time spent up to now is    11986.2 secs

     total energy              =   -5047.70902487 Ry
     Harris-Foulkes estimate   =   -5047.70902487 Ry
     estimated scf accuracy    <          3.2E-10 Ry

     iteration # 34     ecut=    65.00 Ry     beta= 0.70
     Davidson diagonalization with overlap
     ethr =  1.00E-13,  avg # of iterations =  2.9

     negative rho (up, down):  1.612E-03 0.000E+00

     total cpu time spent up to now is    12219.0 secs

     total energy              =   -5047.70902487 Ry
     Harris-Foulkes estimate   =   -5047.70902487 Ry
     estimated scf accuracy    <          1.0E-10 Ry

     iteration # 35     ecut=    65.00 Ry     beta= 0.70
     Davidson diagonalization with overlap
     ethr =  1.00E-13,  avg # of iterations =  4.2

     negative rho (up, down):  1.612E-03 0.000E+00

     total cpu time spent up to now is    12463.2 secs

     End of self-consistent calculation
 --- enter write_ns ---
 LDA+U parameters:
U( 1)     =  4.00000000
alpha( 1) =  0.00000000
atom    1   Tr[ns(na)] =   4.57569
    eigenvalues: 
  0.321  0.468  0.468  0.491  0.540
    eigenvectors:
  0.000  0.126  0.000  0.562  0.312
  0.997  0.000  0.003  0.000  0.000
  0.000  0.772  0.000  0.223  0.005
  0.000  0.102  0.000  0.216  0.683
  0.003  0.000  0.997  0.000  0.000
    occupations:
  0.503 -0.000  0.005  0.025  0.000
 -0.000  0.322 -0.000  0.000  0.007
  0.005 -0.000  0.473 -0.009  0.000
  0.025  0.000 -0.009  0.522 -0.000
  0.000  0.007  0.000 -0.000  0.468
atom    2   Tr[ns(na)] =   4.57251
    eigenvalues: 
  0.324  0.465  0.468  0.490  0.540
    eigenvectors:
  0.000  0.020  0.062  0.600  0.318
  0.994  0.003  0.003  0.000  0.000
  0.001  0.163  0.657  0.168  0.011
  0.000  0.009  0.092  0.231  0.668
  0.006  0.805  0.187  0.000  0.002
    occupations:
  0.504 -0.001  0.003  0.025  0.002
 -0.001  0.324 -0.004 -0.000  0.011
  0.003 -0.004  0.472 -0.011 -0.001
  0.025 -0.000 -0.011  0.521  0.003
  0.002  0.011 -0.001  0.003  0.465
atom    3   Tr[ns(na)] =   4.57251
    eigenvalues: 
  0.324  0.465  0.468  0.490  0.540
    eigenvectors:
  0.000  0.020  0.062  0.600  0.318
  0.994  0.003  0.003  0.000  0.000
  0.001  0.163  0.657  0.168  0.011
  0.000  0.009  0.092  0.231  0.668
  0.006  0.805  0.187  0.000  0.002
    occupations:
  0.504  0.001 -0.003  0.025  0.002
  0.001  0.324 -0.004  0.000 -0.011
 -0.003 -0.004  0.472  0.011  0.001
  0.025  0.000  0.011  0.521  0.003
  0.002 -0.011  0.001  0.003  0.465
atom    4   Tr[ns(na)] =   4.57569
    eigenvalues: 
  0.321  0.468  0.468  0.491  0.540
    eigenvectors:
  0.000  0.126  0.000  0.562  0.312
  0.997  0.000  0.003  0.000  0.000
  0.000  0.772  0.000  0.223  0.005
  0.000  0.102  0.000  0.216  0.683
  0.003  0.000  0.997  0.000  0.000
    occupations:
  0.503 -0.000 -0.005  0.025  0.000
 -0.000  0.322 -0.000  0.000 -0.007
 -0.005 -0.000  0.473  0.009  0.000
  0.025  0.000  0.009  0.522 -0.000
  0.000 -0.007  0.000 -0.000  0.468
atom   15   Tr[ns(na)] =   4.57174
    eigenvalues: 
  0.348  0.449  0.458  0.484  0.546
    eigenvectors:
  0.000  0.000  0.552  0.032  0.416
  0.986  0.014  0.000  0.000  0.000
  0.000  0.000  0.068  0.931  0.001
  0.000  0.000  0.381  0.037  0.583
  0.014  0.986  0.000  0.000  0.000
    occupations:
  0.496 -0.000  0.006  0.042  0.000
 -0.000  0.350 -0.000  0.000  0.012
  0.006 -0.000  0.482 -0.003  0.000
  0.042  0.000 -0.003  0.511 -0.000
  0.000  0.012  0.000 -0.000  0.448
atom   16   Tr[ns(na)] =   4.59367
    eigenvalues: 
  0.355  0.451  0.467  0.482  0.542
    eigenvectors:
  0.019  0.379  0.002  0.225  0.376
  0.956  0.016  0.017  0.011  0.000
  0.003  0.347  0.206  0.443  0.001
  0.008  0.172  0.007  0.205  0.609
  0.014  0.087  0.768  0.116  0.015
    occupations:
  0.490  0.015  0.011  0.038 -0.013
  0.015  0.360  0.008 -0.009  0.012
  0.011  0.008  0.468 -0.006 -0.002
  0.038 -0.009 -0.006  0.512 -0.002
 -0.013  0.012 -0.002 -0.002  0.467
atom   17   Tr[ns(na)] =   4.59367
    eigenvalues: 
  0.355  0.451  0.467  0.482  0.542
    eigenvectors:
  0.019  0.379  0.002  0.225  0.376
  0.956  0.016  0.017  0.011  0.000
  0.003  0.347  0.206  0.443  0.001
  0.008  0.172  0.007  0.205  0.609
  0.014  0.087  0.768  0.116  0.015
    occupations:
  0.490 -0.015 -0.011  0.038 -0.013
 -0.015  0.360  0.008  0.009 -0.012
 -0.011  0.008  0.468  0.006  0.002
  0.038  0.009  0.006  0.512 -0.002
 -0.013 -0.012  0.002 -0.002  0.467
atom   18   Tr[ns(na)] =   4.57174
    eigenvalues: 
  0.348  0.449  0.458  0.484  0.546
    eigenvectors:
  0.000  0.000  0.552  0.032  0.416
  0.986  0.014  0.000  0.000  0.000
  0.000  0.000  0.068  0.931  0.001
  0.000  0.000  0.381  0.037  0.583
  0.014  0.986  0.000  0.000  0.000
    occupations:
  0.496 -0.000 -0.006  0.042  0.000
 -0.000  0.350 -0.000  0.000 -0.012
 -0.006 -0.000  0.482  0.003  0.000
  0.042  0.000  0.003  0.511 -0.000
  0.000 -0.012  0.000 -0.000  0.448
atom   29   Tr[ns(na)] =   4.57363
    eigenvalues: 
  0.321  0.468  0.470  0.485  0.544
    eigenvectors:
  0.000  0.000  0.117  0.554  0.329
  1.000  0.000  0.000  0.000  0.000
  0.000  0.000  0.830  0.170  0.000
  0.000  0.000  0.053  0.276  0.671
  0.000  1.000  0.000  0.000  0.000
    occupations:
  0.502 -0.000  0.005  0.029  0.000
 -0.000  0.321 -0.000  0.000  0.002
  0.005 -0.000  0.473 -0.003  0.000
  0.029  0.000 -0.003  0.524 -0.000
  0.000  0.002  0.000 -0.000  0.468
atom   30   Tr[ns(na)] =   4.57251
    eigenvalues: 
  0.324  0.465  0.468  0.490  0.540
    eigenvectors:
  0.000  0.020  0.062  0.600  0.318
  0.994  0.003  0.003  0.000  0.000
  0.001  0.163  0.657  0.168  0.011
  0.000  0.009  0.092  0.231  0.668
  0.006  0.805  0.187  0.000  0.002
    occupations:
  0.504  0.001  0.003  0.025 -0.002
  0.001  0.324  0.004  0.000  0.011
  0.003  0.004  0.472 -0.011  0.001
  0.025  0.000 -0.011  0.521 -0.003
 -0.002  0.011  0.001 -0.003  0.465
atom   31   Tr[ns(na)] =   4.57251
    eigenvalues: 
  0.324  0.465  0.468  0.490  0.540
    eigenvectors:
  0.000  0.020  0.062  0.600  0.318
  0.994  0.003  0.003  0.000  0.000
  0.001  0.163  0.657  0.168  0.011
  0.000  0.009  0.092  0.231  0.668
  0.006  0.805  0.187  0.000  0.002
    occupations:
  0.504 -0.001 -0.003  0.025 -0.002
 -0.001  0.324  0.004 -0.000 -0.011
 -0.003  0.004  0.472  0.011 -0.001
  0.025 -0.000  0.011  0.521 -0.003
 -0.002 -0.011 -0.001 -0.003  0.465
atom   32   Tr[ns(na)] =   4.57363
    eigenvalues: 
  0.321  0.468  0.470  0.485  0.544
    eigenvectors:
  0.000  0.000  0.117  0.554  0.329
  1.000  0.000  0.000  0.000  0.000
  0.000  0.000  0.830  0.170  0.000
  0.000  0.000  0.053  0.276  0.671
  0.000  1.000  0.000  0.000  0.000
    occupations:
  0.502 -0.000 -0.005  0.029  0.000
 -0.000  0.321 -0.000  0.000 -0.002
 -0.005 -0.000  0.473  0.003  0.000
  0.029  0.000  0.003  0.524 -0.000
  0.000 -0.002  0.000 -0.000  0.468
atom   43   Tr[ns(na)] =   4.53688
    eigenvalues: 
  0.344  0.378  0.494  0.495  0.557
    eigenvectors:
  0.000  0.356  0.000  0.643  0.001
  0.955  0.000  0.045  0.000  0.000
  0.000  0.529  0.000  0.274  0.196
  0.000  0.115  0.000  0.082  0.803
  0.045  0.000  0.955  0.000  0.000
    occupations:
  0.454 -0.000 -0.052  0.022  0.000
 -0.000  0.351 -0.000  0.000 -0.031
 -0.052 -0.000  0.445  0.053  0.000
  0.022  0.000  0.053  0.531 -0.000
  0.000 -0.031  0.000 -0.000  0.487
atom   44   Tr[ns(na)] =   4.59367
    eigenvalues: 
  0.355  0.451  0.467  0.482  0.542
    eigenvectors:
  0.019  0.379  0.002  0.225  0.376
  0.956  0.016  0.017  0.011  0.000
  0.003  0.347  0.206  0.443  0.001
  0.008  0.172  0.007  0.205  0.609
  0.014  0.087  0.768  0.116  0.015
    occupations:
  0.490 -0.015  0.011  0.038  0.013
 -0.015  0.360 -0.008  0.009  0.012
  0.011 -0.008  0.468 -0.006  0.002
  0.038  0.009 -0.006  0.512  0.002
  0.013  0.012  0.002  0.002  0.467
atom   45   Tr[ns(na)] =   4.59367
    eigenvalues: 
  0.355  0.451  0.467  0.482  0.542
    eigenvectors:
  0.019  0.379  0.002  0.225  0.376
  0.956  0.016  0.017  0.011  0.000
  0.003  0.347  0.206  0.443  0.001
  0.008  0.172  0.007  0.205  0.609
  0.014  0.087  0.768  0.116  0.015
    occupations:
  0.490  0.015 -0.011  0.038  0.013
  0.015  0.360 -0.008 -0.009 -0.012
 -0.011 -0.008  0.468  0.006 -0.002
  0.038 -0.009  0.006  0.512  0.002
  0.013 -0.012 -0.002  0.002  0.467
atom   46   Tr[ns(na)] =   4.53688
    eigenvalues: 
  0.344  0.378  0.494  0.495  0.557
    eigenvectors:
  0.000  0.356  0.000  0.643  0.001
  0.955  0.000  0.045  0.000  0.000
  0.000  0.529  0.000  0.274  0.196
  0.000  0.115  0.000  0.082  0.803
  0.045  0.000  0.955  0.000  0.000
    occupations:
  0.454 -0.000  0.052  0.022  0.000
 -0.000  0.351 -0.000  0.000  0.031
  0.052 -0.000  0.445 -0.053  0.000
  0.022  0.000 -0.053  0.531 -0.000
  0.000  0.031  0.000 -0.000  0.487
N of occupied +U levels =   73.180607
 --- exit write_ns ---

          k = 0.0000 0.0000 0.0000 ( 43483 PWs)   bands (ev):

   -60.2063 -60.2062 -60.0503 -60.0478 -60.0468 -60.0450 -60.0061 -60.0037
   -59.9742 -59.9723 -59.9694 -59.9679 -59.9500 -59.9483 -59.9420 -59.9402
   -34.2457 -34.2440 -34.1216 -34.1183 -34.1181 -34.1171 -34.0824 -34.0796
   -34.0579 -34.0551 -34.0320 -34.0286 -33.9550 -33.9518 -33.9455 -33.9435
   -33.9363 -33.9351 -33.9316 -33.9186 -33.9150 -33.9111 -33.9109 -33.9012
   -33.8757 -33.8742 -33.8740 -33.8688 -33.8683 -33.8555 -33.8526 -33.8524
   -33.8465 -33.8432 -33.8287 -33.8141 -33.8077 -33.8050 -33.8042 -33.7890
   -33.7860 -33.7820 -33.7795 -33.7632 -33.7605 -33.7570 -33.7422 -33.7400
   -13.6374 -13.5344 -13.2978 -13.1764 -12.9493 -12.8874 -12.6218 -12.6123
   -12.5951 -12.4995 -12.3700 -12.3458 -12.3397 -12.2227 -12.2224 -12.2055
   -12.1946 -12.1895 -12.1172 -12.0351 -12.0154 -11.9714 -11.9612 -11.9388
   -11.9287 -11.9247 -11.9055 -11.8772 -11.8463 -11.8391 -11.8282 -11.7406
   -11.7150 -11.7100 -11.6990 -11.6743 -11.6558 -11.6558 -11.6279  -0.6980
    -0.6437  -0.5159  -0.4516  -0.3942  -0.3657  -0.3406  -0.3364  -0.2533
    -0.2409  -0.2110  -0.1455  -0.1110  -0.1103  -0.0957  -0.0326  -0.0265
    -0.0011   0.0177   0.0344   0.1467   0.1569   0.1604   0.2163   0.2661
     0.3118   0.3470   0.3698   0.4862   0.5208   0.5748   0.6106   0.6358
     0.7338   0.8119   0.8314   0.9081   0.9779   1.0370   1.0646   1.1242
     1.1676   1.1702   1.1764   1.1926   1.2819   1.3363   1.3697   1.3988
     1.3995   1.4737   1.6169   1.6219   1.6657   1.6690   1.6910   1.7409
     1.7618   1.7655   1.7711   1.8029   1.8568   1.8811   1.8943   1.9287
     1.9836   1.9966   2.0199   2.0956   2.1358   2.1658   2.1931   2.2406
     2.2698   2.3251   2.3271   2.3614   2.3663   2.4070   2.4722   2.5274
     2.5285   2.5787   2.6586   2.7132   2.7355   2.7609   2.7685   2.7973
     2.8277   2.9103   2.9272   2.9659   3.0069   3.0295   3.0577   3.0869
     3.1047   3.2210   3.2346   3.2548   3.3306   3.3309   3.3489   3.3499
     3.4104   3.4364   3.4772   3.7028   3.7212   3.7838   3.8281   3.8561
     3.8997   3.9291   4.0062   4.0398   6.0249   6.2794   6.4689   6.5198
     6.6011   6.6531   6.6693   6.8037   6.8396   6.9759   7.0477   7.1517
     7.3365   7.3887   7.4212   7.4277   7.5097   7.5181   7.5189   7.5240
     7.6124   7.6343   7.6395   7.6447   7.6699   7.6889   7.7066   7.7188
     7.7401   7.7412   7.7915   7.8447   7.8857   7.9017   7.9693   8.0925
     8.1020   8.1275   8.1769   8.2466   8.3346   8.3405   8.3684   8.3733
     8.3949

          k = 0.0000 0.0000-0.3100 ( 43572 PWs)   bands (ev):

   -60.2062 -60.2062 -60.0503 -60.0478 -60.0468 -60.0450 -60.0060 -60.0037
   -59.9740 -59.9724 -59.9694 -59.9679 -59.9500 -59.9483 -59.9420 -59.9402
   -34.2452 -34.2445 -34.1215 -34.1185 -34.1178 -34.1175 -34.0816 -34.0804
   -34.0580 -34.0551 -34.0312 -34.0296 -33.9536 -33.9533 -33.9454 -33.9437
   -33.9336 -33.9334 -33.9288 -33.9196 -33.9185 -33.9131 -33.9130 -33.9025
   -33.8808 -33.8733 -33.8693 -33.8672 -33.8609 -33.8549 -33.8544 -33.8528
   -33.8484 -33.8448 -33.8411 -33.8118 -33.8097 -33.8085 -33.7891 -33.7851
   -33.7827 -33.7800 -33.7782 -33.7693 -33.7642 -33.7597 -33.7418 -33.7405
   -13.6070 -13.5696 -13.2416 -13.2404 -12.9361 -12.9002 -12.6102 -12.6089
   -12.6059 -12.5087 -12.3392 -12.3373 -12.3213 -12.2560 -12.2197 -12.2052
   -12.2002 -12.1558 -12.1524 -12.0308 -12.0103 -11.9754 -11.9618 -11.9348
   -11.9308 -11.9289 -11.9174 -11.8777 -11.8482 -11.8388 -11.8325 -11.7232
   -11.7151 -11.7100 -11.7054 -11.6741 -11.6538 -11.6488 -11.6360  -0.6994
    -0.6478  -0.5407  -0.4124  -0.4040  -0.3751  -0.3524  -0.3275  -0.2849
    -0.2447  -0.1516  -0.1329  -0.1294  -0.1056  -0.0920  -0.0610  -0.0473
    -0.0280  -0.0188   0.0634   0.1397   0.1504   0.1599   0.3080   0.3313
     0.3827   0.3857   0.3886   0.3972   0.4475   0.5622   0.5760   0.5850
     0.6342   0.8003   0.8832   0.9688   1.0599   1.0715   1.0893   1.1596
     1.1790   1.2354   1.2389   1.2453   1.3202   1.3436   1.3452   1.3733
     1.4228   1.4254   1.4327   1.4431   1.4910   1.5585   1.6490   1.6926
     1.7070   1.7312   1.7677   1.8802   1.8877   1.9891   2.0299   2.0666
     2.0847   2.1054   2.1065   2.1451   2.1597   2.2145   2.2257   2.2880
     2.2886   2.3207   2.3533   2.3534   2.4105   2.4252   2.4580   2.4850
     2.5846   2.5900   2.5912   2.6208   2.6298   2.6558   2.6748   2.7114
     2.7166   2.8485   2.8486   2.8924   2.9166   2.9546   3.1048   3.1683
     3.2162   3.2242   3.2305   3.2322   3.3535   3.4000   3.4443   3.4705
     3.4765   3.4815   3.5736   3.6090   3.6315   3.6537   3.7364   3.8489
     3.9810   4.0063   4.0164   4.0178   6.1283   6.1403   6.4827   6.4978
     6.5854   6.6729   6.7108   6.8975   6.9242   6.9391   7.1319   7.1647
     7.3364   7.3696   7.3882   7.4508   7.4949   7.5261   7.5482   7.5685
     7.5737   7.6176   7.6337   7.6463   7.6666   7.6769   7.6834   7.7249
     7.7275   7.7561   7.7836   7.8042   7.8202   7.8944   7.9209   7.9246
     8.0057   8.1612   8.1713   8.2069   8.2495   8.4174   8.4393   8.4757
     8.5485

          k = 0.0000-0.4061 0.0000 ( 43398 PWs)   bands (ev):

   -60.2063 -60.2062 -60.0503 -60.0478 -60.0468 -60.0450 -60.0061 -60.0036
   -59.9741 -59.9723 -59.9694 -59.9679 -59.9500 -59.9483 -59.9420 -59.9402
   -34.2457 -34.2439 -34.1216 -34.1182 -34.1181 -34.1171 -34.0823 -34.0797
   -34.0579 -34.0550 -34.0320 -34.0285 -33.9550 -33.9518 -33.9455 -33.9434
   -33.9364 -33.9352 -33.9316 -33.9186 -33.9151 -33.9110 -33.9109 -33.9012
   -33.8757 -33.8742 -33.8740 -33.8687 -33.8682 -33.8554 -33.8526 -33.8524
   -33.8464 -33.8432 -33.8287 -33.8140 -33.8077 -33.8050 -33.8042 -33.7890
   -33.7859 -33.7820 -33.7795 -33.7632 -33.7605 -33.7570 -33.7422 -33.7399
   -13.6267 -13.5260 -13.3100 -13.1856 -12.9471 -12.8862 -12.6168 -12.6070
   -12.5928 -12.4981 -12.3633 -12.3424 -12.3344 -12.2272 -12.2265 -12.2115
   -12.1920 -12.1887 -12.1131 -12.0348 -12.0157 -11.9694 -11.9598 -11.9348
   -11.9269 -11.9246 -11.9090 -11.8574 -11.8479 -11.8355 -11.8330 -11.7406
   -11.7335 -11.7126 -11.7109 -11.6731 -11.6711 -11.6503 -11.6435  -0.6949
    -0.6421  -0.5071  -0.4435  -0.3310  -0.3278  -0.2685  -0.2648  -0.2404
    -0.1799  -0.1328  -0.1252  -0.1040  -0.0686  -0.0423  -0.0357  -0.0199
     0.0043   0.0215   0.0334   0.1448   0.1636   0.1649   0.2313   0.2818
     0.3271   0.5417   0.5685   0.5735   0.6306   0.7028   0.7061   0.7797
     0.7863   0.8115   0.8146   0.8496   0.8843   0.9094   0.9168   0.9697
     0.9904   1.0045   1.0263   1.0942   1.2145   1.2408   1.2776   1.2956
     1.3198   1.3277   1.3368   1.4985   1.5137   1.5361   1.5792   1.6350
     1.6609   1.6952   1.7317   1.7562   1.8153   1.8604   1.8889   1.9103
     1.9488   1.9569   1.9652   1.9694   2.0767   2.2287   2.3149   2.3338
     2.4000   2.4501   2.4775   2.5086   2.5200   2.5397   2.5586   2.5807
     2.6677   2.6928   2.7208   2.7647   2.7736   2.7938   2.8143   2.8742
     2.8776   2.9201   2.9249   2.9382   2.9643   2.9789   3.1388   3.1413
     3.2327   3.2351   3.2431   3.3069   3.3275   3.3425   3.4057   3.4225
     3.4877   3.4936   3.5502   3.5878   3.5934   3.6654   3.7038   3.7370
     3.8111   3.8190   3.8724   3.8859   6.0276   6.2829   6.4596   6.5245
     6.5949   6.6228   6.6718   6.8084   6.8306   6.9275   7.0504   7.1564
     7.3771   7.3842   7.4233   7.4791   7.4923   7.5051   7.5135   7.5579
     7.6087   7.6528   7.6685   7.6822   7.6963   7.7029   7.7120   7.7480
     7.7706   7.7708   7.7833   7.8100   7.8681   7.9065   8.0315   8.1180
     8.1595   8.1694   8.2475   8.2761   8.3431   8.3592   8.4052   8.4688
     8.5121

          k = 0.0000-0.4061-0.3100 ( 43472 PWs)   bands (ev):

   -60.2062 -60.2062 -60.0503 -60.0478 -60.0468 -60.0450 -60.0060 -60.0037
   -59.9740 -59.9724 -59.9694 -59.9679 -59.9499 -59.9483 -59.9420 -59.9402
   -34.2452 -34.2445 -34.1214 -34.1184 -34.1177 -34.1175 -34.0816 -34.0805
   -34.0579 -34.0550 -34.0311 -34.0295 -33.9535 -33.9532 -33.9454 -33.9435
   -33.9337 -33.9335 -33.9288 -33.9196 -33.9185 -33.9131 -33.9130 -33.9025
   -33.8808 -33.8734 -33.8693 -33.8673 -33.8608 -33.8549 -33.8543 -33.8527
   -33.8483 -33.8448 -33.8411 -33.8118 -33.8097 -33.8085 -33.7891 -33.7850
   -33.7826 -33.7800 -33.7782 -33.7693 -33.7642 -33.7597 -33.7417 -33.7404
   -13.5978 -13.5594 -13.2519 -13.2518 -12.9338 -12.8990 -12.6070 -12.6050
   -12.6005 -12.5072 -12.3357 -12.3332 -12.3175 -12.2530 -12.2245 -12.2027
   -12.1990 -12.1596 -12.1538 -12.0311 -12.0100 -11.9705 -11.9612 -11.9330
   -11.9306 -11.9264 -11.9196 -11.8575 -11.8478 -11.8397 -11.8302 -11.7408
   -11.7325 -11.7136 -11.7109 -11.6721 -11.6678 -11.6521 -11.6399  -0.6979
    -0.6444  -0.5374  -0.4072  -0.3394  -0.3198  -0.2659  -0.2445  -0.2368
    -0.1905  -0.1435  -0.1299  -0.1289  -0.1144  -0.0398  -0.0378  -0.0229
    -0.0119  -0.0064   0.1041   0.1310   0.1325   0.1833   0.2474   0.3398
     0.3909   0.4646   0.6084   0.6093   0.6408   0.6727   0.7187   0.7318
     0.7654   0.8100   0.8240   0.8664   0.8671   0.9152   0.9209   0.9656
     0.9685   1.0083   1.0701   1.0749   1.1519   1.2885   1.3007   1.3139
     1.3342   1.3689   1.4288   1.4463   1.4738   1.5364   1.5648   1.6010
     1.6187   1.6412   1.6731   1.6738   1.6971   1.7128   1.9329   2.0157
     2.0683   2.1184   2.1471   2.1650   2.1892   2.3258   2.3329   2.3749
     2.3859   2.4101   2.4279   2.4891   2.4990   2.5022   2.5173   2.5214
     2.5534   2.5577   2.5654   2.6332   2.6530   2.7236   2.7784   2.7836
     2.9142   2.9308   3.0233   3.0497   3.0627   3.0885   3.1612   3.2371
     3.2378   3.2423   3.2731   3.2945   3.3506   3.3820   3.4002   3.4026
     3.4167   3.4449   3.5306   3.5447   3.5742   3.5789   3.7312   3.7542
     3.8336   3.8338   3.8966   3.9045   6.1338   6.1414   6.4744   6.4991
     6.5823   6.6459   6.7160   6.8938   6.9013   6.9242   7.1305   7.1653
     7.3303   7.3521   7.3958   7.5252   7.5347   7.5434   7.5828   7.5929
     7.6282   7.6460   7.6680   7.6698   7.6726   7.6760   7.6960   7.7070
     7.7353   7.7599   7.7650   7.7940   7.8340   7.8735   7.9384   7.9512
     8.0012   8.1525   8.1526   8.4087   8.4146   8.4448   8.5151   8.5310
     8.6376

          k =-0.5000 0.0000 0.0000 ( 43442 PWs)   bands (ev):

   -60.2063 -60.2062 -60.0494 -60.0480 -60.0472 -60.0459 -60.0060 -60.0036
   -59.9720 -59.9716 -59.9702 -59.9699 -59.9498 -59.9482 -59.9422 -59.9404
   -34.2451 -34.2435 -34.1219 -34.1182 -34.1174 -34.1166 -34.0757 -34.0735
   -34.0609 -34.0581 -34.0321 -34.0288 -33.9518 -33.9500 -33.9493 -33.9473
   -33.9341 -33.9304 -33.9299 -33.9295 -33.9149 -33.9101 -33.9022 -33.8907
   -33.8780 -33.8734 -33.8726 -33.8689 -33.8666 -33.8638 -33.8457 -33.8383
   -33.8381 -33.8333 -33.8318 -33.8185 -33.8183 -33.8172 -33.8105 -33.8018
   -33.7854 -33.7818 -33.7668 -33.7615 -33.7594 -33.7566 -33.7548 -33.7505
   -13.3733 -13.3023 -13.2787 -13.1402 -12.9567 -12.9533 -12.8250 -12.8239
   -12.7016 -12.6818 -12.4219 -12.4062 -12.3840 -12.2974 -12.1995 -12.1332
   -12.0987 -12.0254 -12.0204 -12.0117 -12.0117 -11.9991 -11.9583 -11.9497
   -11.9367 -11.9063 -11.8906 -11.8836 -11.8696 -11.8368 -11.8337 -11.7631
   -11.7360 -11.7091 -11.6990 -11.6673 -11.6545 -11.6380 -11.6302  -0.7905
    -0.7403  -0.6930  -0.6753  -0.5084  -0.4974  -0.4873  -0.4762  -0.2202
    -0.2166  -0.1748  -0.1600  -0.1061  -0.0752   0.0029   0.0274   0.0322
     0.0562   0.1138   0.1437   0.1479   0.1706   0.2182   0.2561   0.2580
     0.3192   0.3444   0.4348   0.4371   0.5136   0.5850   0.5926   0.7068
     0.8189   0.8207   0.8288   0.8331   0.8963   0.9156   0.9908   1.0408
     1.1158   1.1897   1.2830   1.3337   1.3354   1.3462   1.4157   1.4632
     1.5538   1.5806   1.5915   1.6202   1.6673   1.7184   1.8247   1.8323
     1.8814   1.8988   1.8990   1.9371   1.9642   1.9779   2.0225   2.0389
     2.0452   2.0560   2.0956   2.0969   2.1198   2.1313   2.1695   2.2113
     2.2113   2.2219   2.2448   2.2541   2.2806   2.3048   2.3290   2.4045
     2.4862   2.5525   2.6191   2.6503   2.6575   2.7305   2.7383   2.7834
     2.8138   2.8660   2.9609   2.9615   2.9702   3.0171   3.0868   3.1335
     3.2035   3.2115   3.2570   3.2756   3.3111   3.3405   3.3864   3.5054
     3.6361   3.6552   3.7131   3.7134   3.7181   3.8647   3.8888   3.9001
     3.9163   3.9184   3.9345   3.9422   6.3580   6.3967   6.5240   6.6579
     6.6598   6.6684   6.7569   6.7799   6.8095   6.8485   7.0054   7.2725
     7.3029   7.3169   7.3897   7.3921   7.4149   7.4430   7.4699   7.4966
     7.5077   7.5311   7.6038   7.6063   7.6067   7.6293   7.6586   7.6723
     7.7660   7.7756   7.7812   7.7901   7.8198   7.8225   7.8265   7.8472
     7.9063   7.9107   7.9356   7.9992   8.0117   8.0327   8.0511   8.0997
     8.1002

          k =-0.5000 0.0000-0.3100 ( 43392 PWs)   bands (ev):

   -60.2063 -60.2062 -60.0493 -60.0480 -60.0472 -60.0459 -60.0060 -60.0037
   -59.9719 -59.9715 -59.9704 -59.9700 -59.9498 -59.9482 -59.9422 -59.9403
   -34.2446 -34.2440 -34.1215 -34.1186 -34.1171 -34.1169 -34.0755 -34.0737
   -34.0607 -34.0583 -34.0314 -34.0295 -33.9509 -33.9502 -33.9491 -33.9482
   -33.9323 -33.9323 -33.9292 -33.9209 -33.9147 -33.9130 -33.9122 -33.8906
   -33.8787 -33.8711 -33.8664 -33.8641 -33.8640 -33.8636 -33.8579 -33.8552
   -33.8357 -33.8227 -33.8219 -33.8214 -33.8209 -33.8158 -33.8127 -33.8060
   -33.7786 -33.7755 -33.7670 -33.7604 -33.7592 -33.7590 -33.7570 -33.7548
   -13.3668 -13.3094 -13.2185 -13.2126 -12.8978 -12.8958 -12.8957 -12.8923
   -12.6923 -12.6916 -12.4148 -12.4095 -12.3190 -12.2889 -12.2574 -12.0893
   -12.0337 -12.0327 -12.0274 -12.0164 -12.0069 -12.0030 -11.9984 -11.9537
   -11.9504 -11.9093 -11.9009 -11.8933 -11.8806 -11.8432 -11.8431 -11.7288
   -11.7237 -11.7113 -11.7111 -11.6588 -11.6494 -11.6453 -11.6354  -0.7744
    -0.7617  -0.6913  -0.6791  -0.5088  -0.5057  -0.4892  -0.4827  -0.2385
    -0.2071  -0.1950  -0.1256  -0.1202  -0.0243   0.0335   0.0423   0.0508
     0.0818   0.0843   0.0910   0.1192   0.1482   0.2419   0.2547   0.2952
     0.3013   0.4338   0.4540   0.4729   0.5119   0.5229   0.5823   0.6325
     0.6454   0.6940   0.8722   0.8957   0.9088   0.9134   1.0682   1.0866
     1.1589   1.1770   1.2826   1.3007   1.3474   1.4077   1.4218   1.4418
     1.4662   1.4844   1.6047   1.6690   1.7002   1.7841   1.7871   1.8537
     1.8591   1.8985   1.9482   1.9882   1.9997   2.0333   2.0672   2.0737
     2.0739   2.0978   2.1161   2.1228   2.1587   2.1706   2.1756   2.1944
     2.1951   2.2031   2.2074   2.2483   2.3192   2.3634   2.4441   2.4639
     2.4759   2.5137   2.5146   2.5236   2.5836   2.6097   2.6593   2.6741
     2.6883   2.7992   2.8228   2.9535   3.0932   3.1314   3.1403   3.1569
     3.1610   3.2641   3.2721   3.2872   3.2998   3.3152   3.4075   3.5390
     3.6588   3.6608   3.6626   3.6713   3.7336   3.8922   3.8990   3.9158
     3.9167   3.9295   3.9310   3.9399   6.3695   6.4302   6.4758   6.6295
     6.7368   6.7519   6.7643   6.7818   6.7976   6.7995   7.0433   7.2951
     7.3202   7.3467   7.3761   7.4142   7.4318   7.4450   7.5170   7.5194
     7.5194   7.5309   7.5708   7.5841   7.5919   7.6006   7.6417   7.6917
     7.7160   7.7417   7.7504   7.7517   7.7958   7.8726   7.8826   7.8982
     7.9001   7.9129   7.9725   7.9791   7.9831   7.9860   7.9867   8.0814
     8.0962

          k =-0.5000-0.4061 0.0000 ( 43484 PWs)   bands (ev):

   -60.2063 -60.2062 -60.0493 -60.0480 -60.0471 -60.0459 -60.0060 -60.0036
   -59.9720 -59.9716 -59.9702 -59.9699 -59.9498 -59.9482 -59.9422 -59.9404
   -34.2451 -34.2435 -34.1220 -34.1182 -34.1174 -34.1166 -34.0758 -34.0735
   -34.0609 -34.0581 -34.0321 -34.0288 -33.9518 -33.9500 -33.9492 -33.9473
   -33.9342 -33.9305 -33.9299 -33.9295 -33.9150 -33.9101 -33.9022 -33.8907
   -33.8781 -33.8734 -33.8725 -33.8689 -33.8667 -33.8638 -33.8457 -33.8383
   -33.8381 -33.8333 -33.8318 -33.8185 -33.8183 -33.8172 -33.8106 -33.8018
   -33.7854 -33.7818 -33.7668 -33.7615 -33.7594 -33.7567 -33.7548 -33.7505
   -13.3654 -13.2970 -13.2708 -13.1344 -12.9649 -12.9601 -12.8294 -12.8280
   -12.7018 -12.6825 -12.4192 -12.4059 -12.3783 -12.2846 -12.1990 -12.1397
   -12.1013 -12.0255 -12.0177 -12.0115 -12.0053 -11.9998 -11.9562 -11.9462
   -11.9348 -11.9042 -11.8889 -11.8861 -11.8785 -11.8409 -11.8278 -11.7308
   -11.7301 -11.7138 -11.7118 -11.6829 -11.6606 -11.6536 -11.6494  -0.7886
    -0.7383  -0.6858  -0.6648  -0.5113  -0.5018  -0.4922  -0.4795  -0.1544
    -0.1498  -0.1383  -0.0856  -0.0499   0.0326   0.0478   0.0628   0.1335
     0.1752   0.1951   0.2056   0.2182   0.2398   0.2648   0.2788   0.3087
     0.3299   0.4561   0.4718   0.4747   0.5546   0.5944   0.7419   0.7460
     0.7503   0.7573   0.7863   0.7937   0.7966   0.8050   0.8864   0.9154
     1.0078   1.0386   1.1009   1.1053   1.1136   1.1540   1.3200   1.3945
     1.3978   1.4395   1.5218   1.5773   1.6357   1.6528   1.6935   1.7609
     1.7638   1.8190   1.8368   1.8370   1.8581   1.8620   1.9804   1.9883
     2.0270   2.1065   2.1209   2.1304   2.1571   2.1656   2.2022   2.2084
     2.2281   2.2434   2.2736   2.3891   2.4279   2.5025   2.5104   2.5328
     2.6332   2.6924   2.7055   2.7058   2.7407   2.7743   2.7779   2.8112
     2.8738   2.9216   2.9585   3.0400   3.0595   3.0961   3.1231   3.1273
     3.1941   3.2290   3.3266   3.3346   3.3388   3.4380   3.4463   3.4956
     3.5323   3.5406   3.6496   3.6502   3.6582   3.6857   3.7418   3.7927
     3.8661   3.8852   3.9096   3.9176   6.3582   6.3949   6.5260   6.6279
     6.6666   6.6767   6.7647   6.8040   6.8055   6.8321   6.9916   7.2723
     7.3391   7.3793   7.4224   7.4276   7.4545   7.4574   7.4617   7.4644
     7.4984   7.5323   7.5536   7.5865   7.5918   7.6070   7.7087   7.7314
     7.7585   7.7683   7.7758   7.7934   7.7954   7.8051   7.8302   7.8483
     7.9119   7.9326   7.9863   8.0093   8.0416   8.0527   8.0625   8.1016
     8.1018

          k =-0.5000-0.4061-0.3100 ( 43472 PWs)   bands (ev):

   -60.2062 -60.2062 -60.0493 -60.0480 -60.0472 -60.0459 -60.0059 -60.0036
   -59.9719 -59.9715 -59.9704 -59.9699 -59.9498 -59.9482 -59.9422 -59.9403
   -34.2447 -34.2440 -34.1215 -34.1186 -34.1171 -34.1169 -34.0755 -34.0738
   -34.0607 -34.0584 -34.0314 -34.0295 -33.9509 -33.9502 -33.9491 -33.9482
   -33.9325 -33.9324 -33.9293 -33.9209 -33.9147 -33.9131 -33.9123 -33.8906
   -33.8787 -33.8712 -33.8664 -33.8642 -33.8640 -33.8636 -33.8579 -33.8552
   -33.8357 -33.8227 -33.8218 -33.8214 -33.8209 -33.8159 -33.8128 -33.8060
   -33.7787 -33.7755 -33.7670 -33.7605 -33.7592 -33.7590 -33.7570 -33.7548
   -13.3604 -13.3025 -13.2116 -13.2055 -12.9043 -12.9021 -12.9015 -12.8978
   -12.6929 -12.6919 -12.4140 -12.4091 -12.3158 -12.2823 -12.2526 -12.0801
   -12.0330 -12.0314 -12.0271 -12.0159 -12.0060 -12.0030 -11.9990 -11.9534
   -11.9508 -11.9078 -11.9037 -11.8874 -11.8819 -11.8502 -11.8294 -11.7290
   -11.7278 -11.7159 -11.7090 -11.6682 -11.6640 -11.6574 -11.6435  -0.7718
    -0.7604  -0.6827  -0.6702  -0.5119  -0.5079  -0.4918  -0.4877  -0.1985
    -0.1312  -0.0660  -0.0637  -0.0218   0.0039   0.0387   0.0737   0.0900
     0.0901   0.2030   0.2311   0.2490   0.2525   0.2760   0.2833   0.3337
     0.4097   0.4224   0.4305   0.4946   0.5108   0.5552   0.6418   0.7243
     0.7322   0.7441   0.7875   0.8212   0.8333   0.8972   0.9588   0.9721
     0.9725   1.0004   1.0499   1.0705   1.1277   1.1829   1.3139   1.3443
     1.3802   1.4067   1.4558   1.5094   1.5645   1.6021   1.6989   1.7568
     1.8579   1.9428   1.9542   1.9565   2.0045   2.0138   2.0287   2.0371
     2.0437   2.0981   2.0993   2.1168   2.1629   2.1708   2.1882   2.2419
     2.2482   2.3050   2.3191   2.3284   2.3346   2.3771   2.4640   2.5525
     2.5809   2.5889   2.6415   2.6567   2.6651   2.6753   2.7374   2.7803
     2.8611   2.9456   2.9967   3.0068   3.0382   3.0798   3.1217   3.1556
     3.1923   3.2311   3.3063   3.3759   3.4025   3.4032   3.4195   3.4946
     3.6178   3.6330   3.6354   3.6493   3.7114   3.7196   3.7275   3.7283
     3.8814   3.8863   3.8905   3.8962   6.3711   6.4209   6.4855   6.5952
     6.7403   6.7569   6.7693   6.7799   6.7982   6.8135   7.0288   7.2983
     7.3555   7.3987   7.4120   7.4507   7.4708   7.4737   7.4757   7.5050
     7.5296   7.5655   7.5894   7.5911   7.6002   7.6113   7.6114   7.6626
     7.6655   7.6997   7.7980   7.8041   7.8076   7.8158   7.8603   7.8853
     7.9415   7.9470   7.9552   7.9855   7.9925   8.0023   8.0115   8.1022
     8.1071

     the Fermi energy is     5.9272 ev

!    total energy              =   -5047.70902487 Ry
     Harris-Foulkes estimate   =   -5047.70902487 Ry
     estimated scf accuracy    <          2.9E-11 Ry

     total all-electron energy =    -36246.277804 Ry

     The total energy is the sum of the following terms:

     one-electron contribution =   -2367.64126252 Ry
     hartree contribution      =    1352.41079355 Ry
     xc contribution           =    -612.16702073 Ry
     ewald contribution        =   -1933.47652323 Ry
     Dispersion Correction     =      -0.50835084 Ry
     Hubbard energy            =       5.72261064 Ry
     one-center paw contrib.   =   -1491.93669542 Ry
     smearing contrib. (-TS)   =      -0.11257632 Ry

     convergence has been achieved in  35 iterations

     negative rho (up, down):  1.612E-03 0.000E+00

     Forces acting on atoms (cartesian axes, Ry/au):

     atom    1 type  1   force =     0.00000000    0.00032379   -0.00003749
     atom    2 type  1   force =    -0.00001631    0.00009660    0.00002486
     atom    3 type  1   force =    -0.00001631    0.00009660   -0.00002486
     atom    4 type  1   force =     0.00000000    0.00032379    0.00003749
     atom    5 type  2   force =     0.00002351   -0.00010701   -0.00000776
     atom    6 type  2   force =     0.00000000    0.00002844   -0.00001102
     atom    7 type  2   force =     0.00000000    0.00002844    0.00001102
     atom    8 type  2   force =     0.00002351   -0.00010701    0.00000776
     atom    9 type  2   force =     0.00000000   -0.00044410    0.00008448
     atom   10 type  2   force =    -0.00008955   -0.00001035   -0.00019905
     atom   11 type  2   force =    -0.00008955   -0.00001035    0.00019905
     atom   12 type  2   force =     0.00002836   -0.00042825    0.00000000
     atom   13 type  2   force =     0.00000000    0.00030675    0.00000000
     atom   14 type  2   force =     0.00000000   -0.00044410   -0.00008448
     atom   15 type  1   force =     0.00000000   -0.00024766   -0.00001553
     atom   16 type  1   force =     0.00014746   -0.00001379    0.00002221
     atom   17 type  1   force =     0.00014746   -0.00001379   -0.00002221
     atom   18 type  1   force =     0.00000000   -0.00024766    0.00001553
     atom   19 type  2   force =     0.00001675    0.00006219   -0.00005141
     atom   20 type  2   force =     0.00000000    0.00031210   -0.00000657
     atom   21 type  2   force =     0.00000000    0.00031210    0.00000657
     atom   22 type  2   force =     0.00001675    0.00006219    0.00005141
     atom   23 type  2   force =     0.00000000    0.00014546    0.00026985
     atom   24 type  2   force =     0.00009963   -0.00015290   -0.00021299
     atom   25 type  2   force =     0.00009963   -0.00015290    0.00021299
     atom   26 type  2   force =     0.00000644   -0.00006267    0.00000000
     atom   27 type  2   force =     0.00000000    0.00041573    0.00000000
     atom   28 type  2   force =     0.00000000    0.00014546   -0.00026985
     atom   29 type  1   force =     0.00000000    0.00021086   -0.00004163
     atom   30 type  1   force =     0.00001631    0.00009660    0.00002486
     atom   31 type  1   force =     0.00001631    0.00009660   -0.00002486
     atom   32 type  1   force =     0.00000000    0.00021086    0.00004163
     atom   33 type  2   force =    -0.00002351   -0.00010701   -0.00000776
     atom   34 type  2   force =     0.00000000    0.00010297   -0.00006035
     atom   35 type  2   force =     0.00000000    0.00010297    0.00006035
     atom   36 type  2   force =    -0.00002351   -0.00010701    0.00000776
     atom   37 type  2   force =     0.00000000   -0.00032814    0.00008570
     atom   38 type  2   force =     0.00008955   -0.00001035   -0.00019905
     atom   39 type  2   force =     0.00008955   -0.00001035    0.00019905
     atom   40 type  2   force =    -0.00002836   -0.00042825    0.00000000
     atom   41 type  2   force =     0.00000000    0.00051617    0.00000000
     atom   42 type  2   force =     0.00000000   -0.00032814   -0.00008570
     atom   43 type  1   force =     0.00000000    0.00006504   -0.00018214
     atom   44 type  1   force =    -0.00014746   -0.00001379    0.00002221
     atom   45 type  1   force =    -0.00014746   -0.00001379   -0.00002221
     atom   46 type  1   force =     0.00000000    0.00006504    0.00018214
     atom   47 type  2   force =    -0.00001675    0.00006219   -0.00005141
     atom   48 type  2   force =     0.00000000    0.00006561   -0.00011749
     atom   49 type  2   force =     0.00000000    0.00006561    0.00011749
     atom   50 type  2   force =    -0.00001675    0.00006219    0.00005141
     atom   51 type  2   force =     0.00000000   -0.00011227   -0.00008685
     atom   52 type  2   force =    -0.00009963   -0.00015290   -0.00021299
     atom   53 type  2   force =    -0.00009963   -0.00015290    0.00021299
     atom   54 type  2   force =    -0.00000644   -0.00006267    0.00000000
     atom   55 type  2   force =     0.00000000   -0.00011227    0.00008685

     Total force =     0.001804     Total SCF correction =     0.000025

     number of scf cycles    =  13
     number of bfgs steps    =  12

     energy   old            =   -5047.7090161382 Ry
     energy   new            =   -5047.7090248668 Ry

     CASE: energy  _new < energy  _old

     new trust radius        =       0.0010442148 bohr
     new conv_thr            =            1.0E-12 Ry


ATOMIC_POSITIONS (angstrom)
V        0.000000000   1.642756839   7.499924261
V        1.780186595   2.741484092   9.809139742
V        1.780186595   2.741484092   1.734768511
V        0.000000000   1.642756839   4.043983979
O        1.781440869   2.161077970   7.861545938
O        0.000000000   2.192467091   9.464621470
O        0.000000000   2.192467091   2.079286783
O        1.781440869   2.161077970   3.682362305
O        0.000000000   0.047695403   4.026765788
O        1.735754183   4.338839768   1.773138752
O        1.735754183   4.338839768   9.770769503
O        1.799659047   2.304502703   0.000000000
O        0.000000000   2.108984787   5.771954126
O        0.000000000   0.047695403   7.517142475
V        0.000000000   6.182725581   7.460489825
V        1.767627820   7.122787191   9.843122094
V        1.767627820   7.122787191   1.700786159
V        0.000000000   6.182725581   4.083418415
O        1.885287805   6.627747202   7.784565102
O        0.000000000   6.706808497   9.371119175
O        0.000000000   6.706808497   2.172789076
O        1.885287805   6.627747202   3.759343141
O        0.000000000   4.596289317   4.139638626
O        1.899483860   8.704886113   1.670992789
O        1.899483860   8.704886113   9.872915466
O        1.600983783   6.644192250   0.000000000
O        0.000000000   6.726637614   5.771954126
O        0.000000000   4.596289317   7.404269637
V        3.578096708   1.669967921   7.488466668
V        5.376006834   2.741484092   9.809139742
V        5.376006834   2.741484092   1.734768511
V        3.578096708   1.669967921   4.055441572
O        5.374752560   2.161077970   7.861545938
O        3.578096708   2.266840083   9.439579692
O        3.578096708   2.266840083   2.104328562
O        5.374752560   2.161077970   3.682362305
O        3.578096708   0.074680039   4.106660581
O        5.420439246   4.338839768   1.773138752
O        5.420439246   4.338839768   9.770769503
O        5.356534382   2.304502703   0.000000000
O        3.578096708   2.161595538   5.771954126
O        3.578096708   0.074680039   7.437247682
V        3.578096708   5.965374661   7.875952917
V        5.388565608   7.122787191   9.843122094
V        5.388565608   7.122787191   1.700786159
V        3.578096708   5.965374661   3.667955322
O        5.270905624   6.627747202   7.784565102
O        3.578096708   6.417659913   9.685012646
O        3.578096708   6.417659913   1.858895607
O        5.270905624   6.627747202   3.759343141
O        3.578096708   4.447099996   4.146049775
O        5.256709569   8.704886113   1.670992789
O        5.256709569   8.704886113   9.872915466
O        5.555209646   6.644192250   0.000000000
O        3.578096708   4.447099996   7.397858488



     Writing output data file ovac1.save/
     NEW-OLD atomic charge density approx. for the potential

     Check: negative core charge=   -0.000001

     negative rho (up, down):  1.610E-03 0.000E+00
 Atomic wfc used for LDA+U Projector are NOT orthogonalized

     total cpu time spent up to now is    12736.1 secs

     Self-consistent Calculation

     iteration #  1     ecut=    65.00 Ry     beta= 0.70
     Davidson diagonalization with overlap
     ethr =  1.00E-06,  avg # of iterations =  2.5
 --- enter write_ns ---
 LDA+U parameters:
U( 1)     =  4.00000000
alpha( 1) =  0.00000000
atom    1   Tr[ns(na)] =   4.57551
    eigenvalues: 
  0.321  0.468  0.468  0.491  0.540
    eigenvectors:
  0.000  0.126  0.000  0.563  0.312
  0.997  0.000  0.003  0.000  0.000
  0.000  0.773  0.000  0.221  0.005
  0.000  0.101  0.000  0.216  0.683
  0.003  0.000  0.997  0.000  0.000
    occupations:
  0.503 -0.000  0.005  0.025  0.000
 -0.000  0.322 -0.000  0.000  0.007
  0.005 -0.000  0.473 -0.009  0.000
  0.025  0.000 -0.009  0.522 -0.000
  0.000  0.007  0.000 -0.000  0.468
atom    2   Tr[ns(na)] =   4.57286
    eigenvalues: 
  0.324  0.465  0.468  0.490  0.540
    eigenvectors:
  0.000  0.019  0.062  0.600  0.318
  0.994  0.003  0.002  0.000  0.000
  0.001  0.161  0.658  0.169  0.011
  0.000  0.009  0.092  0.231  0.668
  0.006  0.807  0.185  0.000  0.002
    occupations:
  0.504 -0.001  0.003  0.025  0.002
 -0.001  0.324 -0.004 -0.000  0.011
  0.003 -0.004  0.472 -0.011 -0.001
  0.025 -0.000 -0.011  0.521  0.003
  0.002  0.011 -0.001  0.003  0.465
atom    3   Tr[ns(na)] =   4.57286
    eigenvalues: 
  0.324  0.465  0.468  0.490  0.540
    eigenvectors:
  0.000  0.019  0.062  0.600  0.318
  0.994  0.003  0.002  0.000  0.000
  0.001  0.161  0.658  0.169  0.011
  0.000  0.009  0.092  0.231  0.668
  0.006  0.807  0.185  0.000  0.002
    occupations:
  0.504  0.001 -0.003  0.025  0.002
  0.001  0.324 -0.004  0.000 -0.011
[...]
     1.8828   1.8998   1.9007   1.9404   1.9667   1.9802   2.0228   2.0407
     2.0497   2.0574   2.0924   2.0979   2.1190   2.1302   2.1679   2.2109
     2.2146   2.2213   2.2437   2.2515   2.2829   2.3045   2.3261   2.4062
     2.4854   2.5516   2.6176   2.6489   2.6570   2.7296   2.7379   2.7833
     2.8131   2.8653   2.9597   2.9625   2.9673   3.0190   3.0838   3.1321
     3.2020   3.2120   3.2575   3.2742   3.3128   3.3380   3.3801   3.5064
     3.6372   3.6560   3.7110   3.7155   3.7180   3.8642   3.8905   3.9004
     3.9162   3.9196   3.9357   3.9429   6.3572   6.3976   6.5234   6.6586
     6.6636   6.6705   6.7569   6.7809   6.8100   6.8497   7.0094   7.2733
     7.3037   7.3157   7.3904   7.3926   7.4146   7.4434   7.4689   7.4959
     7.5082   7.5319   7.6039   7.6071   7.6071   7.6293   7.6582   7.6717
     7.7656   7.7758   7.7806   7.7890   7.8195   7.8245   7.8256   7.8464
     7.9057   7.9114   7.9368   7.9988   8.0132   8.0330   8.0545   8.0993
     8.1002

          k =-0.5000 0.0000-0.3100 ( 43392 PWs)   bands (ev):

   -60.2058 -60.2058 -60.0487 -60.0474 -60.0466 -60.0453 -60.0052 -60.0029
   -59.9709 -59.9705 -59.9694 -59.9690 -59.9495 -59.9479 -59.9418 -59.9400
   -34.2448 -34.2442 -34.1213 -34.1184 -34.1173 -34.1171 -34.0755 -34.0738
   -34.0605 -34.0581 -34.0306 -34.0287 -33.9501 -33.9494 -33.9483 -33.9474
   -33.9317 -33.9316 -33.9286 -33.9203 -33.9140 -33.9121 -33.9113 -33.8899
   -33.8780 -33.8704 -33.8659 -33.8635 -33.8632 -33.8627 -33.8571 -33.8545
   -33.8351 -33.8220 -33.8211 -33.8205 -33.8200 -33.8154 -33.8122 -33.8052
   -33.7777 -33.7748 -33.7666 -33.7602 -33.7585 -33.7584 -33.7565 -33.7544
   -13.3697 -13.3124 -13.2181 -13.2121 -12.8977 -12.8956 -12.8955 -12.8921
   -12.6943 -12.6936 -12.4155 -12.4102 -12.3199 -12.2900 -12.2585 -12.0910
   -12.0339 -12.0331 -12.0270 -12.0159 -12.0059 -12.0014 -11.9978 -11.9554
   -11.9496 -11.9091 -11.9005 -11.8917 -11.8785 -11.8415 -11.8412 -11.7285
   -11.7217 -11.7107 -11.7095 -11.6589 -11.6488 -11.6451 -11.6338  -0.7749
    -0.7617  -0.6927  -0.6809  -0.5097  -0.5070  -0.4892  -0.4825  -0.2374
    -0.2042  -0.1945  -0.1236  -0.1197  -0.0248   0.0340   0.0438   0.0502
     0.0840   0.0848   0.0930   0.1201   0.1489   0.2424   0.2550   0.2947
     0.2999   0.4330   0.4548   0.4720   0.5093   0.5220   0.5821   0.6329
     0.6456   0.6921   0.8741   0.8967   0.9105   0.9158   1.0702   1.0879
     1.1608   1.1781   1.2823   1.2999   1.3476   1.4085   1.4204   1.4391
     1.4672   1.4866   1.6046   1.6661   1.7000   1.7851   1.7873   1.8570
     1.8624   1.8974   1.9491   1.9874   2.0025   2.0343   2.0713   2.0731
     2.0752   2.0963   2.1153   2.1244   2.1592   2.1693   2.1760   2.1941
     2.1963   2.2017   2.2082   2.2503   2.3177   2.3634   2.4434   2.4650
     2.4749   2.5134   2.5134   2.5241   2.5816   2.6094   2.6599   2.6748
     2.6881   2.7981   2.8210   2.9522   3.0915   3.1330   3.1392   3.1547
     3.1600   3.2633   3.2706   3.2860   3.3003   3.3138   3.4018   3.5399
     3.6604   3.6606   3.6637   3.6716   3.7314   3.8919   3.8996   3.9159
     3.9179   3.9306   3.9322   3.9409   6.3683   6.4312   6.4750   6.6331
     6.7366   6.7525   6.7665   6.7820   6.7987   6.7997   7.0477   7.2955
     7.3193   7.3478   7.3761   7.4147   7.4311   7.4448   7.5181   7.5190
     7.5198   7.5312   7.5712   7.5842   7.5922   7.6013   7.6423   7.6926
     7.7161   7.7416   7.7499   7.7514   7.7957   7.8727   7.8844   7.8991
     7.8992   7.9130   7.9725   7.9797   7.9822   7.9858   7.9864   8.0806
     8.0978

          k =-0.5000-0.4061 0.0000 ( 43484 PWs)   bands (ev):

   -60.2058 -60.2057 -60.0488 -60.0474 -60.0466 -60.0453 -60.0052 -60.0029
   -59.9710 -59.9706 -59.9693 -59.9689 -59.9495 -59.9479 -59.9418 -59.9400
   -34.2453 -34.2437 -34.1218 -34.1180 -34.1176 -34.1168 -34.0758 -34.0736
   -34.0607 -34.0579 -34.0313 -34.0280 -33.9511 -33.9492 -33.9485 -33.9464
   -33.9336 -33.9299 -33.9293 -33.9289 -33.9141 -33.9092 -33.9015 -33.8900
   -33.8774 -33.8725 -33.8717 -33.8681 -33.8662 -33.8633 -33.8452 -33.8377
   -33.8374 -33.8323 -33.8309 -33.8180 -33.8175 -33.8164 -33.8101 -33.8010
   -33.7847 -33.7812 -33.7665 -33.7614 -33.7589 -33.7563 -33.7541 -33.7499
   -13.3684 -13.3002 -13.2705 -13.1340 -12.9645 -12.9598 -12.8292 -12.8278
   -12.7039 -12.6844 -12.4200 -12.4066 -12.3791 -12.2856 -12.2000 -12.1410
   -12.1009 -12.0250 -12.0174 -12.0101 -12.0040 -12.0006 -11.9580 -11.9461
   -11.9351 -11.9043 -11.8882 -11.8844 -11.8766 -11.8389 -11.8260 -11.7312
   -11.7282 -11.7121 -11.7119 -11.6821 -11.6603 -11.6530 -11.6475  -0.7889
    -0.7389  -0.6877  -0.6663  -0.5120  -0.5032  -0.4918  -0.4797  -0.1545
    -0.1481  -0.1380  -0.0864  -0.0486   0.0358   0.0499   0.0632   0.1372
     0.1734   0.1968   0.2038   0.2190   0.2409   0.2643   0.2792   0.3086
     0.3284   0.4559   0.4724   0.4759   0.5545   0.5971   0.7426   0.7438
     0.7493   0.7577   0.7847   0.7953   0.7985   0.8042   0.8887   0.9128
     1.0075   1.0389   1.1022   1.1097   1.1140   1.1553   1.3230   1.3922
     1.3974   1.4401   1.5268   1.5778   1.6348   1.6525   1.6933   1.7633
     1.7648   1.8223   1.8347   1.8385   1.8605   1.8649   1.9820   1.9919
     2.0226   2.1061   2.1183   2.1321   2.1556   2.1646   2.2018   2.2064
     2.2286   2.2423   2.2705   2.3883   2.4251   2.5018   2.5105   2.5298
     2.6331   2.6912   2.7054   2.7067   2.7394   2.7734   2.7756   2.8094
     2.8729   2.9220   2.9591   3.0386   3.0606   3.0982   3.1229   3.1267
     3.1951   3.2292   3.3268   3.3277   3.3404   3.4391   3.4490   3.4938
     3.5352   3.5422   3.6478   3.6489   3.6583   3.6882   3.7390   3.7919
     3.8662   3.8865   3.9106   3.9190   6.3573   6.3961   6.5252   6.6313
     6.6671   6.6788   6.7645   6.8049   6.8057   6.8341   6.9955   7.2732
     7.3376   7.3805   7.4225   7.4282   7.4539   7.4581   7.4629   7.4639
     7.4965   7.5327   7.5532   7.5851   7.5922   7.6075   7.7080   7.7315
     7.7572   7.7718   7.7758   7.7936   7.7952   7.8047   7.8298   7.8463
     7.9106   7.9325   7.9846   8.0122   8.0443   8.0536   8.0671   8.1011
     8.1014

          k =-0.5000-0.4061-0.3100 ( 43472 PWs)   bands (ev):

   -60.2058 -60.2057 -60.0487 -60.0474 -60.0466 -60.0453 -60.0052 -60.0029
   -59.9709 -59.9705 -59.9694 -59.9689 -59.9495 -59.9479 -59.9418 -59.9400
   -34.2448 -34.2442 -34.1213 -34.1184 -34.1173 -34.1171 -34.0756 -34.0738
   -34.0605 -34.0581 -34.0306 -34.0287 -33.9501 -33.9494 -33.9483 -33.9474
   -33.9319 -33.9318 -33.9287 -33.9203 -33.9141 -33.9121 -33.9114 -33.8899
   -33.8780 -33.8704 -33.8659 -33.8635 -33.8632 -33.8627 -33.8572 -33.8546
   -33.8351 -33.8220 -33.8211 -33.8205 -33.8200 -33.8154 -33.8123 -33.8052
   -33.7778 -33.7748 -33.7667 -33.7603 -33.7585 -33.7585 -33.7565 -33.7544
   -13.3635 -13.3056 -13.2113 -13.2050 -12.9040 -12.9017 -12.9012 -12.8975
   -12.6949 -12.6939 -12.4148 -12.4098 -12.3165 -12.2833 -12.2537 -12.0819
   -12.0337 -12.0316 -12.0267 -12.0153 -12.0049 -12.0014 -11.9984 -11.9551
   -11.9501 -11.9078 -11.9033 -11.8857 -11.8800 -11.8486 -11.8271 -11.7282
   -11.7269 -11.7159 -11.7074 -11.6677 -11.6634 -11.6568 -11.6417  -0.7725
    -0.7606  -0.6842  -0.6721  -0.5127  -0.5092  -0.4918  -0.4873  -0.1964
    -0.1312  -0.0659  -0.0642  -0.0216   0.0051   0.0426   0.0763   0.0908
     0.0913   0.2038   0.2308   0.2478   0.2527   0.2739   0.2814   0.3364
     0.4084   0.4226   0.4305   0.4946   0.5113   0.5565   0.6430   0.7259
     0.7335   0.7457   0.7862   0.8210   0.8339   0.8948   0.9596   0.9715
     0.9739   1.0024   1.0488   1.0707   1.1316   1.1834   1.3125   1.3437
     1.3819   1.4090   1.4556   1.5102   1.5673   1.6057   1.6980   1.7557
     1.8598   1.9457   1.9527   1.9589   2.0042   2.0125   2.0303   2.0370
     2.0432   2.0987   2.0996   2.1129   2.1611   2.1714   2.1906   2.2423
     2.2481   2.3052   2.3168   2.3285   2.3333   2.3765   2.4640   2.5514
     2.5792   2.5844   2.6421   2.6569   2.6668   2.6752   2.7343   2.7775
     2.8602   2.9453   2.9973   3.0081   3.0391   3.0783   3.1232   3.1531
     3.1922   3.2315   3.3078   3.3711   3.4007   3.4034   3.4205   3.4964
     3.6201   3.6332   3.6356   3.6510   3.7089   3.7170   3.7266   3.7285
     3.8823   3.8876   3.8904   3.8982   6.3698   6.4220   6.4846   6.5986
     6.7400   6.7589   6.7697   6.7802   6.7983   6.8148   7.0330   7.2988
     7.3538   7.3981   7.4136   7.4508   7.4716   7.4729   7.4765   7.5060
     7.5293   7.5650   7.5897   7.5904   7.5998   7.6113   7.6121   7.6622
     7.6647   7.7003   7.7978   7.8077   7.8086   7.8156   7.8602   7.8858
     7.9421   7.9461   7.9568   7.9846   7.9920   8.0021   8.0112   8.1061
     8.1085

     the Fermi energy is     5.9280 ev

!    total energy              =   -5047.70905671 Ry
     Harris-Foulkes estimate   =   -5047.70905671 Ry
     estimated scf accuracy    <          3.6E-13 Ry

     total all-electron energy =    -36246.277835 Ry

     The total energy is the sum of the following terms:

     one-electron contribution =   -2366.64386966 Ry
     hartree contribution      =    1351.91559659 Ry
     xc contribution           =    -612.16676288 Ry
     ewald contribution        =   -1933.97925939 Ry
     Dispersion Correction     =      -0.50816619 Ry
     Hubbard energy            =       5.72269212 Ry
     one-center paw contrib.   =   -1491.93672289 Ry
     smearing contrib. (-TS)   =      -0.11256441 Ry

     convergence has been achieved in  12 iterations

     negative rho (up, down):  1.937E-03 0.000E+00

     Forces acting on atoms (cartesian axes, Ry/au):

     atom    1 type  1   force =     0.00000000    0.00000877    0.00000067
     atom    2 type  1   force =    -0.00000103   -0.00000454   -0.00000004
     atom    3 type  1   force =    -0.00000103   -0.00000454    0.00000004
     atom    4 type  1   force =     0.00000000    0.00000877   -0.00000067
     atom    5 type  2   force =    -0.00000186   -0.00000022    0.00000682
     atom    6 type  2   force =     0.00000000   -0.00000161    0.00000568
     atom    7 type  2   force =     0.00000000   -0.00000161   -0.00000568
     atom    8 type  2   force =    -0.00000186   -0.00000022   -0.00000682
     atom    9 type  2   force =     0.00000000   -0.00000033   -0.00000320
     atom   10 type  2   force =    -0.00000925    0.00000802   -0.00000700
     atom   11 type  2   force =    -0.00000925    0.00000802    0.00000700
     atom   12 type  2   force =     0.00000463    0.00000996    0.00000000
     atom   13 type  2   force =     0.00000000    0.00001077    0.00000000
     atom   14 type  2   force =     0.00000000   -0.00000033    0.00000320
     atom   15 type  1   force =     0.00000000    0.00000189    0.00000300
     atom   16 type  1   force =     0.00000583    0.00000447    0.00000274
     atom   17 type  1   force =     0.00000583    0.00000447   -0.00000274
     atom   18 type  1   force =     0.00000000    0.00000189   -0.00000300
     atom   19 type  2   force =     0.00000366   -0.00001433    0.00000761
     atom   20 type  2   force =     0.00000000    0.00000528   -0.00000262
     atom   21 type  2   force =     0.00000000    0.00000528    0.00000262
     atom   22 type  2   force =     0.00000366   -0.00001433   -0.00000761
     atom   23 type  2   force =     0.00000000    0.00000339    0.00001054
     atom   24 type  2   force =    -0.00000367   -0.00000077   -0.00000314
     atom   25 type  2   force =    -0.00000367   -0.00000077    0.00000314
     atom   26 type  2   force =    -0.00000494    0.00000372    0.00000000
     atom   27 type  2   force =     0.00000000    0.00000160    0.00000000
     atom   28 type  2   force =     0.00000000    0.00000339   -0.00001054
     atom   29 type  1   force =     0.00000000    0.00000043    0.00000138
     atom   30 type  1   force =     0.00000103   -0.00000454   -0.00000004
     atom   31 type  1   force =     0.00000103   -0.00000454    0.00000004
     atom   32 type  1   force =     0.00000000    0.00000043   -0.00000138
     atom   33 type  2   force =     0.00000186   -0.00000022    0.00000682
     atom   34 type  2   force =     0.00000000   -0.00000731   -0.00001155
     atom   35 type  2   force =     0.00000000   -0.00000731    0.00001155
     atom   36 type  2   force =     0.00000186   -0.00000022   -0.00000682
     atom   37 type  2   force =     0.00000000   -0.00000326   -0.00000339
     atom   38 type  2   force =     0.00000925    0.00000802   -0.00000700
     atom   39 type  2   force =     0.00000925    0.00000802    0.00000700
     atom   40 type  2   force =    -0.00000463    0.00000996    0.00000000
     atom   41 type  2   force =     0.00000000    0.00000024    0.00000000
     atom   42 type  2   force =     0.00000000   -0.00000326    0.00000339
     atom   43 type  1   force =     0.00000000   -0.00000730    0.00000418
     atom   44 type  1   force =    -0.00000583    0.00000447    0.00000274
     atom   45 type  1   force =    -0.00000583    0.00000447   -0.00000274
     atom   46 type  1   force =     0.00000000   -0.00000730   -0.00000418
     atom   47 type  2   force =    -0.00000366   -0.00001433    0.00000761
     atom   48 type  2   force =     0.00000000    0.00000230    0.00001465
     atom   49 type  2   force =     0.00000000    0.00000230   -0.00001465
     atom   50 type  2   force =    -0.00000366   -0.00001433   -0.00000761
     atom   51 type  2   force =     0.00000000   -0.00000748   -0.00000778
     atom   52 type  2   force =     0.00000367   -0.00000077   -0.00000314
     atom   53 type  2   force =     0.00000367   -0.00000077    0.00000314
     atom   54 type  2   force =     0.00000494    0.00000372    0.00000000
     atom   55 type  2   force =     0.00000000   -0.00000748    0.00000778

     Total force =     0.000069     Total SCF correction =     0.000002
     Message from routine bfgs:
     history already reset at previous step: stopping

     bfgs converged in  40 scf cycles and  39 bfgs steps
     (criteria: energy <  1.0E-04 Ry, force <  1.0E-05 Ry/Bohr)

     End of BFGS Geometry Optimization

     Final energy   =   -5047.7090567106 Ry
Begin final coordinates

ATOMIC_POSITIONS (angstrom)
V        0.000000000   1.642724631   7.499456608
V        1.779439451   2.739778732   9.810299499
V        1.779439451   2.739778732   1.733608754
V        0.000000000   1.642724631   4.044451632
O        1.780859026   2.161722836   7.861830146
O        0.000000000   2.188379515   9.465532327
O        0.000000000   2.188379515   2.078375926
O        1.780859026   2.161722836   3.682078097
O        0.000000000   0.047693157   4.028301749
O        1.730683970   4.337149893   1.768302750
O        1.730683970   4.337149893   9.775605505
O        1.801016572   2.297462223   0.000000000
O        0.000000000   2.111735401   5.771954126
O        0.000000000   0.047693157   7.515606514
V        0.000000000   6.186521473   7.459599050
V        1.768581775   7.120803644   9.843583436
V        1.768581775   7.120803644   1.700324817
V        0.000000000   6.186521473   4.084309190
O        1.885916733   6.629640428   7.783784844
O        0.000000000   6.710585351   9.370321135
O        0.000000000   6.710585351   2.173587116
O        1.885916733   6.629640428   3.760123399
O        0.000000000   4.600012911   4.142957493
O        1.905610788   8.702306186   1.668770275
O        1.905610788   8.702306186   9.875137980
O        1.601232643   6.640905614   0.000000000
O        0.000000000   6.732833427   5.771954126
O        0.000000000   4.600012911   7.400950770
V        3.578096708   1.672956686   7.487247012
V        5.376753978   2.739778732   9.810299499
V        5.376753978   2.739778732   1.733608754
V        3.578096708   1.672956686   4.056661228
O        5.375334403   2.161722836   7.861830146
O        3.578096708   2.269455615   9.438467466
O        3.578096708   2.269455615   2.105440788
O        5.375334403   2.161722836   3.682078097
O        3.578096708   0.077789405   4.111775461
O        5.425509459   4.337149893   1.768302750
O        5.425509459   4.337149893   9.775605505
O        5.355176857   2.297462223   0.000000000
O        3.578096708   2.169827217   5.771954126
O        3.578096708   0.077789405   7.432132802
V        3.578096708   5.966469842   7.874913332
V        5.387611653   7.120803644   9.843583436
V        5.387611653   7.120803644   1.700324817
V        3.578096708   5.966469842   3.668994907
O        5.270276696   6.629640428   7.783784844
O        3.578096708   6.413137108   9.684343993
O        3.578096708   6.413137108   1.859564260
O        5.270276696   6.629640428   3.760123399
O        3.578096708   4.447218944   4.143791307
O        5.250582641   8.702306186   1.668770275
O        5.250582641   8.702306186   9.875137980
O        5.554960786   6.640905614   0.000000000
O        3.578096708   4.447218944   7.400116956
End final coordinates



     Writing output data file ovac1.save/

     init_run     :     75.23s CPU     75.84s WALL (       1 calls)
     electrons    : 200256.35s CPU 202038.04s WALL (      28 calls)
     update_pot   :    105.04s CPU    105.77s WALL (      27 calls)
     forces       :   5262.39s CPU   5299.38s WALL (      28 calls)

     Called by init_run:
     wfcinit      :     72.18s CPU     72.48s WALL (       1 calls)
     potinit      :      0.30s CPU      0.32s WALL (       1 calls)
     hinit0       :      1.00s CPU      1.05s WALL (       1 calls)

     Called by electrons:
     c_bands      : 179080.87s CPU 180372.57s WALL (     660 calls)
     sum_band     :  18845.41s CPU  19148.22s WALL (     660 calls)
     v_of_rho     :    142.15s CPU    157.14s WALL (     661 calls)
     newd         :   1701.54s CPU   1872.13s WALL (     661 calls)
     PAW_pot      :    529.06s CPU    530.23s WALL (     688 calls)
     mix_rho      :     35.07s CPU     36.93s WALL (     660 calls)

     Called by c_bands:
     init_us_2    :    234.83s CPU    236.29s WALL (   11456 calls)
     cegterg      : 178384.66s CPU 179662.56s WALL (    5280 calls)

     Called by sum_band:
     sum_band:bec :     47.17s CPU     47.41s WALL (    5496 calls)
     addusdens    :   1804.73s CPU   2000.87s WALL (     660 calls)

     Called by *egterg:
     h_psi        :  78397.41s CPU  78925.97s WALL (   23728 calls)
     s_psi        :  31901.41s CPU  32012.19s WALL (   24176 calls)
     g_psi        :     35.06s CPU     35.45s WALL (   18440 calls)
     cdiaghg      :  13708.24s CPU  13933.08s WALL (   23288 calls)

     Called by h_psi:
     h_psi:pot    :  72972.80s CPU  73386.78s WALL (   23728 calls)
     h_psi:calbec :  33162.98s CPU  33338.64s WALL (   23728 calls)
     vloc_psi     :   9149.83s CPU   9268.89s WALL (   23728 calls)
     add_vuspsi   :  30659.27s CPU  30778.97s WALL (   23728 calls)
     vhpsi        :   5357.22s CPU   5381.13s WALL (   23728 calls)

     General routines
     calbec       :  56773.79s CPU  57077.08s WALL (  170680 calls)
     fft          :    166.19s CPU    181.33s WALL (    8899 calls)
     ffts         :      8.34s CPU      9.10s WALL (    1321 calls)
     fftw         :  10223.04s CPU  10350.10s WALL ( 8059792 calls)
     interpolate  :     15.06s CPU     16.46s WALL (     661 calls)
     davcio       :      0.01s CPU      0.04s WALL (       8 calls)

     Parallel routines
     fft_scatt_xy :    832.12s CPU    842.84s WALL ( 8070012 calls)
     fft_scatt_yz :   6807.69s CPU   6909.20s WALL ( 8070012 calls)

     Hubbard U routines
     new_ns       :    752.51s CPU    758.19s WALL (     660 calls)
     vhpsi        :   5357.22s CPU   5381.13s WALL (   23728 calls)
     force_hub    :   2535.31s CPU   2547.66s WALL (      28 calls)

     PWSCF        :   2d 9h42m CPU   2d10h13m WALL


   This run was terminated on:   4:41:17   9Jun2024            

=------------------------------------------------------------------------------=
   JOB DONE.
=------------------------------------------------------------------------------=
